 vasp.5.4.4.18Apr17-6-g9f103f2a35 (build Jun 06 2017 17:32:29) complex          
  
 executed on      LLNL_Quartz_ifc date 2020.03.09  21:19:22
 running on  288 total cores
 distrk:  each k-point on  288 cores,    1 groups
 distr:  one band on NCORES_PER_BAND=   1 cores,  288 groups


--------------------------------------------------------------------------------------------------------


 INCAR:
 POTCAR:   PAW_PBE Ga_d 06Sep2000                 
 POTCAR:   PAW_PBE Fe_pv 06Sep2000                
 POTCAR:   PAW_PBE O 08Apr2002                    

 ----------------------------------------------------------------------------- 
|                                                                             |
|           W    W    AA    RRRRR   N    N  II  N    N   GGGG   !!!           |
|           W    W   A  A   R    R  NN   N  II  NN   N  G    G  !!!           |
|           W    W  A    A  R    R  N N  N  II  N N  N  G       !!!           |
|           W WW W  AAAAAA  RRRRR   N  N N  II  N  N N  G  GGG   !            |
|           WW  WW  A    A  R   R   N   NN  II  N   NN  G    G                |
|           W    W  A    A  R    R  N    N  II  N    N   GGGG   !!!           |
|                                                                             |
|      For optimal performance we recommend to set                            |
|        NCORE= 4 - approx SQRT( number of cores)                             |
|      NCORE specifies how many cores store one orbital (NPAR=cpu/NCORE).     |
|      This setting can  greatly improve the performance of VASP for DFT.     |
|      The default,   NCORE=1            might be grossly inefficient         |
|      on modern multi-core architectures or massively parallel machines.     |
|      Do your own testing !!!!                                               |
|      Unfortunately you need to use the default for GW and RPA calculations. |
|      (for HF NCORE is supported but not extensively tested yet)             |
|                                                                             |
 ----------------------------------------------------------------------------- 

 POTCAR:   PAW_PBE Ga_d 06Sep2000                 
   VRHFIN =Ga: s2p1                                                             
   LEXCH  = PE                                                                  
   EATOM  =  2149.0616 eV,  157.9516 Ry                                         
                                                                                
   TITEL  = PAW_PBE Ga_d 06Sep2000                                              
   LULTRA =        F    use ultrasoft PP ?                                      
   IUNSCR =        1    unscreen: 0-lin 1-nonlin 2-no                           
   RPACOR =    2.000    partial core radius                                     
   POMASS =   69.723; ZVAL   =   13.000    mass and valenz                      
   RCORE  =    2.300    outmost cutoff radius                                   
   RWIGS  =    2.300; RWIGS  =    1.217    wigner-seitz radius (au A)           
   ENMAX  =  282.697; ENMIN  =  212.022 eV                                      
   ICORE  =        3    local potential                                         
   LCOR   =        T    correct aug charges                                     
   LPAW   =        T    paw PP                                                  
   EAUG   =  490.690                                                            
   DEXC   =    -.001                                                            
   RMAX   =    2.742    core radius for proj-oper                               
   RAUG   =    1.300    factor for augmentation sphere                          
   RDEP   =    2.413    radius for radial grids                                 
   QCUT   =   -4.558; QGAM   =    9.117    optimization parameters              
                                                                                
   Description                                                                  
     l     E      TYP  RCUT    TYP  RCUT                                        
     2   .000     23  2.300                                                     
     2  -.400     23  2.300                                                     
     0   .000     23  2.300                                                     
     0   .000     23  2.300                                                     
     1   .000     23  2.300                                                     
     1   .000     23  2.300                                                     
     3  -.100      7  2.300                                                     
  local pseudopotential read in
  partial core-charges read in
  atomic valenz-charges read in
  non local Contribution for L=           2  read in
    real space projection operators read in
  non local Contribution for L=           2  read in
    real space projection operators read in
  non local Contribution for L=           0  read in
    real space projection operators read in
  non local Contribution for L=           0  read in
    real space projection operators read in
  non local Contribution for L=           1  read in
    real space projection operators read in
  non local Contribution for L=           1  read in
    real space projection operators read in
    PAW grid and wavefunctions read in
 
   number of l-projection  operators is LMAX  =           6
   number of lm-projection operators is LMMAX =          18
 
 POTCAR:   PAW_PBE Fe_pv 06Sep2000                
   VRHFIN =Fe:  3pd7s1                                                          
   LEXCH  = PE                                                                  
   EATOM  =  2456.8974 eV,  180.5769 Ry                                         
                                                                                
   TITEL  = PAW_PBE Fe_pv 06Sep2000                                             
   LULTRA =        F    use ultrasoft PP ?                                      
   IUNSCR =        1    unscreen: 0-lin 1-nonlin 2-no                           
   RPACOR =    1.750    partial core radius                                     
   POMASS =   55.847; ZVAL   =   14.000    mass and valenz                      
   RCORE  =    2.200    outmost cutoff radius                                   
   RWIGS  =    2.200; RWIGS  =    1.164    wigner-seitz radius (au A)           
   ENMAX  =  293.238; ENMIN  =  219.929 eV                                      
   RCLOC  =    1.701    cutoff for local pot                                    
   LCOR   =        T    correct aug charges                                     
   LPAW   =        T    paw PP                                                  
   EAUG   =  578.342                                                            
   DEXC   =    -.002                                                            
   RMAX   =    2.693    core radius for proj-oper                               
   RAUG   =    1.300    factor for augmentation sphere                          
   RDEP   =    2.296    radius for radial grids                                 
   QCUT   =   -4.642; QGAM   =    9.285    optimization parameters              
                                                                                
   Description                                                                  
     l     E      TYP  RCUT    TYP  RCUT                                        
     1   .000     23  2.000                                                     
     1  -.400     23  2.000                                                     
     2   .000     23  2.200                                                     
     2   .000     23  2.200                                                     
     0   .000     23  2.000                                                     
     0  2.000     23  2.000                                                     
     3   .000      7   .000                                                     
  local pseudopotential read in
  partial core-charges read in
  atomic valenz-charges read in
  non local Contribution for L=           1  read in
    real space projection operators read in
  non local Contribution for L=           1  read in
    real space projection operators read in
  non local Contribution for L=           2  read in
    real space projection operators read in
  non local Contribution for L=           2  read in
    real space projection operators read in
  non local Contribution for L=           0  read in
    real space projection operators read in
  non local Contribution for L=           0  read in
    real space projection operators read in
    PAW grid and wavefunctions read in
 
   number of l-projection  operators is LMAX  =           6
   number of lm-projection operators is LMMAX =          18
 
 POTCAR:   PAW_PBE O 08Apr2002                    
   VRHFIN =O: s2p4                                                              
   LEXCH  = PE                                                                  
   EATOM  =   432.3788 eV,   31.7789 Ry                                         
                                                                                
   TITEL  = PAW_PBE O 08Apr2002                                                 
   LULTRA =        F    use ultrasoft PP ?                                      
   IUNSCR =        0    unscreen: 0-lin 1-nonlin 2-no                           
   RPACOR =     .000    partial core radius                                     
   POMASS =   16.000; ZVAL   =    6.000    mass and valenz                      
   RCORE  =    1.520    outmost cutoff radius                                   
   RWIGS  =    1.550; RWIGS  =     .820    wigner-seitz radius (au A)           
   ENMAX  =  400.000; ENMIN  =  300.000 eV                                      
   ICORE  =        2    local potential                                         
   LCOR   =        T    correct aug charges                                     
   LPAW   =        T    paw PP                                                  
   EAUG   =  605.392                                                            
   DEXC   =     .000                                                            
   RMAX   =    2.264    core radius for proj-oper                               
   RAUG   =    1.300    factor for augmentation sphere                          
   RDEP   =    1.550    radius for radial grids                                 
   QCUT   =   -5.520; QGAM   =   11.041    optimization parameters              
                                                                                
   Description                                                                  
     l     E      TYP  RCUT    TYP  RCUT                                        
     0   .000     23  1.200                                                     
     0  -.700     23  1.200                                                     
     1   .000     23  1.520                                                     
     1   .600     23  1.520                                                     
     2   .000      7  1.500                                                     
  local pseudopotential read in
  atomic valenz-charges read in
  non local Contribution for L=           0  read in
    real space projection operators read in
  non local Contribution for L=           0  read in
    real space projection operators read in
  non local Contribution for L=           1  read in
    real space projection operators read in
  non local Contribution for L=           1  read in
    real space projection operators read in
    PAW grid and wavefunctions read in
 
   number of l-projection  operators is LMAX  =           4
   number of lm-projection operators is LMMAX =           8
 
 Optimization of the real space projectors (new method)

 maximal supplied QI-value         = 16.25
 optimisation between [QCUT,QGAM] = [ 10.24, 20.48] = [ 29.35,117.42] Ry 
 Optimized for a Real-space Cutoff    1.38 Angstroem

   l    n(q)    QCUT    max X(q) W(low)/X(q) W(high)/X(q)  e(spline) 
   2      7    10.239     6.328    0.33E-04    0.68E-04    0.30E-07
   2      7    10.239     9.625    0.20E-03    0.23E-03    0.80E-07
   0      8    10.239     9.711    0.17E-04    0.17E-04    0.13E-07
   0      8    10.239    32.764    0.56E-04    0.14E-03    0.62E-07
   1      8    10.239     7.413    0.78E-04    0.28E-04    0.38E-07
   1      8    10.239    31.472    0.43E-03    0.30E-03    0.73E-07
 Optimization of the real space projectors (new method)

 maximal supplied QI-value         = 17.01
 optimisation between [QCUT,QGAM] = [ 10.20, 20.41] = [ 29.16,116.64] Ry 
 Optimized for a Real-space Cutoff    1.51 Angstroem

   l    n(q)    QCUT    max X(q) W(low)/X(q) W(high)/X(q)  e(spline) 
   1      9    10.205     4.550    0.11E-04    0.61E-05    0.27E-07
   1      9    10.205     5.234    0.14E-04    0.12E-03    0.13E-06
   2      8    10.205     3.960    0.41E-04    0.45E-04    0.45E-07
   2      8    10.205    29.565    0.45E-03    0.40E-03    0.42E-06
   0      9    10.205    23.582    0.19E-04    0.16E-05    0.90E-08
   0      9    10.205    39.747    0.62E-04    0.50E-04    0.87E-07
 Optimization of the real space projectors (new method)

 maximal supplied QI-value         = 24.76
 optimisation between [QCUT,QGAM] = [ 10.15, 20.30] = [ 28.85,115.39] Ry 
 Optimized for a Real-space Cutoff    1.30 Angstroem

   l    n(q)    QCUT    max X(q) W(low)/X(q) W(high)/X(q)  e(spline) 
   0      8    10.150     4.192    0.55E-04    0.58E-04    0.78E-07
   0      8    10.150     8.473    0.46E-03    0.68E-03    0.23E-06
   1      7    10.150     2.474    0.11E-03    0.93E-04    0.33E-07
   1      7    10.150     3.912    0.46E-03    0.50E-03    0.15E-06
 PAW_PBE Ga_d 06Sep2000                 :
 energy of atom  1       EATOM=-2149.0616
 kinetic energy error for atom=    0.0101 (will be added to EATOM!!)
 PAW_PBE Fe_pv 06Sep2000                :
 energy of atom  2       EATOM=-2456.8974
 kinetic energy error for atom=    0.0365 (will be added to EATOM!!)
 PAW_PBE O 08Apr2002                    :
 energy of atom  3       EATOM= -432.3788
 kinetic energy error for atom=    0.1156 (will be added to EATOM!!)
 
 
 POSCAR: Ga Fe  O                                
  positions in direct lattice
  velocities in cartesian coordinates
 exchange correlation table for  LEXCH =        8
   RHO(1)=    0.500       N(1)  =     2000
   RHO(2)=  100.500       N(2)  =     4000
 


--------------------------------------------------------------------------------------------------------


 ion  position               nearest neighbor table
   1  0.090  1.000  0.396-  99 1.82 140 1.82 108 1.83 106 1.87
   2  0.411  0.625  0.604-  85 1.83 157 1.83  72 1.83 121 1.86
   3  0.589  0.625  0.896-  86 1.83 158 1.83  71 1.83 136 1.86
   4  0.160  0.625  0.655-  78 1.93 149 1.94  80 1.94 121 2.01  75 2.07 154 2.08
   5  0.840  0.625  0.844-  77 1.93 150 1.94  79 1.94 136 2.01  76 2.08 153 2.08
   6  0.910  0.500  0.604-  90 1.83  78 1.83 118 1.83  76 1.86
   7  0.089  0.501  0.895-  77 1.82 117 1.83  68 1.83  75 1.85
   8  0.841  0.375  0.844-  79 1.93 117 1.93 119 1.94  65 2.01  76 2.07 116 2.08
   9  0.911  0.250  0.604- 131 1.83  97 1.83 118 1.83 116 1.86
  10  0.089  0.250  0.897-  96 1.83 117 1.83 132 1.85  93 1.86
  11  0.840  0.625  0.344-  89 1.93 138 1.94  90 1.94  81 2.01 141 2.08  88 2.08
  12  0.660  1.000  0.656- 155 1.93 114 1.93 102 1.95  95 2.01 160 2.06 133 2.07
  13  0.159  0.626  0.155-  70 1.93 137 1.93  68 1.94  82 2.01 142 2.07  87 2.09
  14  0.088  0.250  0.402- 120 1.81 108 1.82 129 1.82 127 1.92
  15  0.911  0.250  0.104- 119 1.83 109 1.84 130 1.84 128 1.86
  16  0.840  0.375  0.344-  90 1.93 131 1.94 129 1.94  92 2.02  88 2.06 128 2.08
  17  0.160  0.379  0.152-  68 1.90 130 1.92 132 1.93 122 2.01  87 2.06 127 2.22
  18  0.590  0.377  0.396- 135 1.81  83 1.82  92 1.85 123 1.88
  19  0.412  0.375  0.103-  91 1.82  69 1.82 124 1.83 122 1.88
  20  0.660  0.250  0.155- 105 1.93 126 1.93 124 1.94 128 2.00 100 2.08  92 2.08
  21  0.411  0.625  0.104-  73 1.82 145 1.83  69 1.83  82 1.86
  22  0.340  0.502  0.343-  83 1.92  85 1.92 125 1.96  87 2.00  82 2.04 122 2.09
  23  0.589  0.625  0.396-  74 1.83 146 1.83  83 1.84  81 1.86
  24  0.341  1.000  0.844- 115 1.93 156 1.93 113 1.94  94 2.01 159 2.07 134 2.07
  25  0.412  0.125  0.606- 114 1.82  84 1.83 134 1.85 104 1.85
  26  0.589  0.125  0.896- 105 1.83 115 1.83  67 1.83 133 1.86
  27  0.910  0.000  0.104-  98 1.82 139 1.83 109 1.84 107 1.86
  28  0.840  0.125  0.344- 110 1.93 131 1.94 108 1.94 100 2.02 107 2.06 128 2.08
  29  0.160  0.121  0.152- 111 1.90 109 1.92 132 1.93 101 2.00 106 2.06 127 2.22
  30  0.590  0.123  0.396- 102 1.82 103 1.82 100 1.85 123 1.88
  31  0.412  0.125  0.103- 113 1.82 112 1.82 124 1.83 101 1.88
  32  0.340  0.998  0.342- 103 1.92 144 1.92 104 1.97 106 2.00 147 2.04 101 2.09
  33  0.660  1.000  0.156- 143 1.93 112 1.93 105 1.93 107 2.01 148 2.07 100 2.09
  34  0.090  0.500  0.396-  80 1.82  89 1.82 129 1.83  87 1.87
  35  0.660  0.501  0.156-  86 1.93  69 1.93 126 1.93  88 2.01  81 2.07  92 2.09
  36  0.660  0.250  0.656-  84 1.94 135 1.94 102 1.94 116 2.00 133 2.07  65 2.07
  37  0.910  0.500  0.104-  79 1.82  70 1.83 130 1.84  88 1.86
  38  0.412  0.375  0.606-  72 1.82  84 1.83  66 1.85 125 1.85
  39  0.589  0.375  0.896- 126 1.83  71 1.83  67 1.83  65 1.86
  40  0.160  0.376  0.657- 118 1.93  80 1.94 120 1.94  66 2.01  75 2.05  93 2.08
  41  0.660  0.500  0.656-  74 1.93  72 1.93 135 1.95  76 2.01 136 2.06  65 2.07
  42  0.341  0.501  0.844-  71 1.93  73 1.93  91 1.94  75 2.01 121 2.07  66 2.07
  43  0.089  0.999  0.895- 152 1.82  96 1.83 111 1.83  94 1.85
  44  0.910  1.000  0.604- 110 1.83 151 1.83  97 1.83  95 1.86
  45  0.841  0.125  0.844-  98 1.93  96 1.93 119 1.94 133 2.01  95 2.07 116 2.08
  46  0.160  0.124  0.657-  97 1.93  99 1.94 120 1.94 134 2.01  94 2.05  93 2.08
  47  0.340  0.250  0.845-  67 1.93 113 1.94  91 1.94  93 2.00  66 2.08 134 2.08
  48  0.088  0.750  0.396- 149 1.83 140 1.83  89 1.83 142 1.87
  49  0.911  0.750  0.104- 150 1.83 139 1.84  70 1.84 141 1.86
  50  0.840  0.875  0.344- 140 1.93 138 1.94 110 1.94 148 2.01 141 2.08 107 2.08
  51  0.159  0.874  0.155- 139 1.93 137 1.93 111 1.94 147 2.01 142 2.07 106 2.09
  52  0.589  0.875  0.396- 155 1.82 146 1.83 103 1.84 148 1.86
  53  0.411  0.875  0.103- 156 1.82 145 1.83 112 1.83 147 1.86
  54  0.340  0.750  0.345- 146 1.93  85 1.94 144 1.94 142 2.01 147 2.09  82 2.09
  55  0.660  0.750  0.155- 145 1.93 143 1.94  86 1.94 141 2.01 148 2.09  81 2.09
  56  0.089  0.750  0.895- 137 1.83 152 1.83  77 1.83 154 1.86
  57  0.912  0.750  0.604- 138 1.83 151 1.83  78 1.83 153 1.86
  58  0.840  0.875  0.844- 152 1.93 150 1.94  98 1.94 160 2.01  95 2.08 153 2.08
  59  0.160  0.875  0.655- 151 1.93 149 1.94  99 1.94 159 2.01  94 2.07 154 2.08
  60  0.589  0.875  0.896- 143 1.83 158 1.83 115 1.83 160 1.86
  61  0.411  0.875  0.604- 144 1.83 157 1.83 114 1.83 159 1.86
  62  0.340  0.750  0.845- 158 1.93  73 1.94 156 1.94 154 2.01 159 2.08 121 2.08
  63  0.660  0.750  0.655- 157 1.93 155 1.94  74 1.94 153 2.00 136 2.09 160 2.09
  64  0.341  0.250  0.345- 123 1.87 127 1.87 104 1.92 125 1.92 122 2.08 101 2.09
  65  0.672  0.375  0.780-  39 1.86   8 2.01  41 2.07  36 2.07
  66  0.328  0.375  0.720-  38 1.85  40 2.01  42 2.07  47 2.08
  67  0.503  0.250  0.872-  39 1.83  26 1.83  47 1.93
  68  0.165  0.501  0.052-   7 1.83  17 1.90  13 1.94
  69  0.497  0.500  0.128-  19 1.82  21 1.83  35 1.93
  70  0.997  0.624  0.128-  37 1.83  49 1.84  13 1.93
  71  0.503  0.500  0.872-  39 1.83   3 1.83  42 1.93
  72  0.497  0.500  0.627-  38 1.82   2 1.83  41 1.93
  73  0.336  0.624  0.947-  21 1.82  42 1.93  62 1.94
  74  0.664  0.624  0.553-  23 1.83  41 1.93  63 1.94
  75  0.173  0.500  0.780-   7 1.85  42 2.01  40 2.05   4 2.07
  76  0.828  0.500  0.719-   6 1.86  41 2.01   8 2.07   5 2.08
  77  0.003  0.625  0.872-   7 1.82  56 1.83   5 1.93
  78  0.997  0.624  0.628-   6 1.83  57 1.83   4 1.93
  79  0.836  0.500  0.947-  37 1.82   8 1.93   5 1.94
  80  0.165  0.500  0.552-  34 1.82  40 1.94   4 1.94
  81  0.672  0.624  0.281-  23 1.86  11 2.01  35 2.07  55 2.09
  82  0.327  0.625  0.219-  21 1.86  13 2.01  22 2.04  54 2.09
  83  0.502  0.500  0.372-  18 1.82  23 1.84  22 1.92
  84  0.497  0.250  0.627-  25 1.83  38 1.83  36 1.94
  85  0.336  0.624  0.447-   2 1.83  22 1.92  54 1.94
  86  0.664  0.624  0.053-   3 1.83  35 1.93  55 1.94
  87  0.173  0.499  0.280-  34 1.87  22 2.00  17 2.06  13 2.09
  88  0.827  0.499  0.219-  37 1.86  35 2.01  16 2.06  11 2.08
  89  0.003  0.624  0.372-  34 1.82  48 1.83  11 1.93
  90  0.836  0.500  0.447-   6 1.83  16 1.93  11 1.94
  91  0.335  0.376  0.947-  19 1.82  42 1.94  47 1.94
  92  0.671  0.374  0.281-  18 1.85  16 2.02  20 2.08  35 2.09
  93  0.172  0.250  0.782-  10 1.86  47 2.00  40 2.08  46 2.08
  94  0.172  0.000  0.780-  43 1.85  24 2.01  46 2.05  59 2.07
  95  0.828  0.000  0.719-  44 1.86  12 2.01  45 2.07  58 2.08
  96  0.003  0.124  0.873-  43 1.83  10 1.83  45 1.93
  97  0.997  0.124  0.627-  44 1.83   9 1.83  46 1.93
  98  0.836  0.000  0.947-  27 1.82  45 1.93  58 1.94
  99  0.165  0.001  0.552-   1 1.82  46 1.94  59 1.94
 100  0.671  0.126  0.281-  30 1.85  28 2.02  20 2.08  33 2.09
 101  0.327  0.125  0.218-  31 1.88  29 2.00  32 2.09  64 2.09
 102  0.663  0.125  0.552-  30 1.82  36 1.94  12 1.95
 103  0.502  0.000  0.372-  30 1.82  52 1.84  32 1.92
 104  0.338  0.126  0.446-  25 1.85  64 1.92  32 1.97
 105  0.664  0.124  0.053-  26 1.83  33 1.93  20 1.93
 106  0.173  0.001  0.280-   1 1.87  32 2.00  29 2.06  51 2.09
 107  0.827  0.001  0.219-  27 1.86  33 2.01  28 2.06  50 2.08
 108  0.004  0.125  0.371-  14 1.82   1 1.83  28 1.94
 109  0.999  0.125  0.129-  15 1.84  27 1.84  29 1.92
 110  0.836  0.001  0.447-  44 1.83  28 1.93  50 1.94
 111  0.165  0.999  0.052-  43 1.83  29 1.90  51 1.94
 112  0.497  0.000  0.128-  31 1.82  53 1.83  33 1.93
 113  0.336  0.125  0.947-  31 1.82  24 1.94  47 1.94
 114  0.497  0.000  0.627-  25 1.82  61 1.83  12 1.93
 115  0.503  0.000  0.872-  26 1.83  60 1.83  24 1.93
 116  0.828  0.250  0.719-   9 1.86  36 2.00  45 2.08   8 2.08
 117  0.003  0.376  0.873-   7 1.83  10 1.83   8 1.93
 118  0.997  0.376  0.627-   6 1.83   9 1.83  40 1.93
 119  0.837  0.250  0.947-  15 1.83   8 1.94  45 1.94
 120  0.166  0.250  0.555-  14 1.81  46 1.94  40 1.94
 121  0.328  0.625  0.719-   2 1.86   4 2.01  42 2.07  62 2.08
 122  0.327  0.374  0.219-  19 1.88  17 2.01  64 2.08  22 2.09
 123  0.498  0.250  0.373-  64 1.87  18 1.88  30 1.88
 124  0.497  0.250  0.129-  19 1.83  31 1.83  20 1.94
 125  0.338  0.375  0.447-  38 1.85  64 1.92  22 1.96
 126  0.664  0.376  0.053-  39 1.83  35 1.93  20 1.93
 127  0.184  0.250  0.292-  64 1.87  14 1.92  17 2.22  29 2.22
 128  0.828  0.250  0.219-  15 1.86  20 2.00  16 2.08  28 2.08
 129  0.004  0.375  0.371-  14 1.82  34 1.83  16 1.94
 130  0.999  0.375  0.129-  15 1.84  37 1.84  17 1.92
 131  0.837  0.250  0.447-   9 1.83  16 1.94  28 1.94
 132  0.163  0.250  0.055-  10 1.85  17 1.93  29 1.93
 133  0.672  0.125  0.780-  26 1.86  45 2.01  12 2.07  36 2.07
 134  0.328  0.125  0.720-  25 1.85  46 2.01  24 2.07  47 2.08
 135  0.663  0.375  0.552-  18 1.81  36 1.94  41 1.95
 136  0.672  0.624  0.781-   3 1.86   5 2.01  41 2.06  63 2.09
 137  0.164  0.750  0.052-  56 1.83  51 1.93  13 1.93
 138  0.837  0.750  0.447-  57 1.83  50 1.94  11 1.94
 139  0.997  0.876  0.128-  27 1.83  49 1.84  51 1.93
 140  0.003  0.876  0.372-   1 1.82  48 1.83  50 1.93
 141  0.828  0.750  0.219-  49 1.86  55 2.01  50 2.08  11 2.08
 142  0.172  0.750  0.281-  48 1.87  54 2.01  51 2.07  13 2.07
 143  0.664  0.876  0.053-  60 1.83  33 1.93  55 1.94
 144  0.336  0.876  0.447-  61 1.83  32 1.92  54 1.94
 145  0.497  0.750  0.128-  53 1.83  21 1.83  55 1.93
 146  0.502  0.750  0.372-  52 1.83  23 1.83  54 1.93
 147  0.327  0.876  0.219-  53 1.86  51 2.01  32 2.04  54 2.09
 148  0.672  0.876  0.281-  52 1.86  50 2.01  33 2.07  55 2.09
 149  0.164  0.750  0.553-  48 1.83  59 1.94   4 1.94
 150  0.836  0.750  0.947-  49 1.83  58 1.94   5 1.94
 151  0.997  0.876  0.628-  44 1.83  57 1.83  59 1.93
 152  0.003  0.876  0.872-  43 1.82  56 1.83  58 1.93
 153  0.827  0.750  0.719-  57 1.86  63 2.00   5 2.08  58 2.08
 154  0.172  0.750  0.781-  56 1.86  62 2.01  59 2.08   4 2.08
 155  0.664  0.876  0.553-  52 1.82  12 1.93  63 1.94
 156  0.336  0.876  0.947-  53 1.82  24 1.93  62 1.94
 157  0.497  0.750  0.627-  61 1.83   2 1.83  63 1.93
 158  0.503  0.750  0.872-  60 1.83   3 1.83  62 1.93
 159  0.328  0.876  0.719-  61 1.86  59 2.01  24 2.07  62 2.08
 160  0.672  0.876  0.781-  60 1.86  58 2.01  12 2.06  63 2.09
 
  LATTYP: Found a simple monoclinic cell.
 ALAT       =    14.6889751464
 B/A-ratio  =     0.8259161174
 C/A-ratio  =     1.5972413798
 COS(beta)  =    -0.9171837574
  
  Lattice vectors:
  
 A1 = ( -11.8609006218,   0.0000000000,  -8.6651617002)
 A2 = (   0.0000000000, -12.1318613217,   0.0000000000)
 A3 = (  11.8609006218,   0.0000000000,  20.2429474736)


Analysis of symmetry for initial positions (statically):
=====================================================================
 Subroutine PRICEL returns:
 Original cell was already a primitive cell.
 

 Routine SETGRP: Setting up the symmetry group for a 
 simple monoclinic supercell.


 Subroutine GETGRP returns: Found  1 space group operations
 (whereof  1 operations were pure point group operations)
 out of a pool of  4 trial point group operations.


The static configuration has the point symmetry C_1 .


Analysis of symmetry for dynamics (positions and initial velocities):
=====================================================================
 Subroutine PRICEL returns:
 Original cell was already a primitive cell.
 

 Routine SETGRP: Setting up the symmetry group for a 
 simple monoclinic supercell.


 Subroutine GETGRP returns: Found  1 space group operations
 (whereof  1 operations were pure point group operations)
 out of a pool of  4 trial point group operations.


The dynamic configuration has the point symmetry C_1 .


Analysis of structural, dynamic, and magnetic symmetry:
=====================================================================
 Subroutine PRICEL returns:
 Original cell was already a primitive cell.
 

 Routine SETGRP: Setting up the symmetry group for a 
 simple monoclinic supercell.


 Subroutine GETGRP returns: Found  1 space group operations
 (whereof  1 operations were pure point group operations)
 out of a pool of  4 trial point group operations.


The magnetic configuration has the point symmetry C_1 .


 Subroutine INISYM returns: Found  1 space group operations
 (whereof  1 operations are pure point group operations),
 and found     1 'primitive' translations

 
 
 KPOINTS: KPOINTS created by Atomic Simulation Env
  k-points in reciprocal lattice
Space group operators:
 irot       det(A)        alpha          n_x          n_y          n_z        tau_x        tau_y        tau_z
    1     1.000000     0.000000     1.000000     0.000000     0.000000     0.000000     0.000000     0.000000

 ----------------------------------------------------------------------------- 
|                                                                             |
|           W    W    AA    RRRRR   N    N  II  N    N   GGGG   !!!           |
|           W    W   A  A   R    R  NN   N  II  NN   N  G    G  !!!           |
|           W    W  A    A  R    R  N N  N  II  N N  N  G       !!!           |
|           W WW W  AAAAAA  RRRRR   N  N N  II  N  N N  G  GGG   !            |
|           WW  WW  A    A  R   R   N   NN  II  N   NN  G    G                |
|           W    W  A    A  R    R  N    N  II  N    N   GGGG   !!!           |
|                                                                             |
|      Your generating k-point grid is not commensurate to the symmetry       |
|      of the lattice.  This can cause   slow convergence with respect        |
|      to k-points for HF type calculations                                   |
|      suggested SOLUTIONS:                                                   |
|       ) if not already the case, use automatic k-point generation           |
|       ) shift your grid to Gamma (G) (e.g. required for hex or fcc lattice) |
|                                                                             |
 ----------------------------------------------------------------------------- 

 
 Subroutine IBZKPT_HF returns following result:
 ==============================================
 
 Found      2 k-points in 1st BZ
 the following      2 k-points will be used (e.g. in the exchange kernel)
 Following reciprocal coordinates:   # in IRBZ
  0.250000  0.250000  0.250000    0.50000000   1 t-inv F
 -0.250000 -0.250000 -0.250000    0.50000000   1 t-inv T


--------------------------------------------------------------------------------------------------------




 Dimension of arrays:
   k-points           NKPTS =      1   k-points in BZ     NKDIM =      2   number of bands    NBANDS=    864
   number of dos      NEDOS =    301   number of ions     NIONS =    160
   non local maximal  LDIM  =      6   non local SUM 2l+1 LMDIM =     18
   total plane-waves  NPLWV = 216000
   max r-space proj   IRMAX =   1914   max aug-charges    IRDMAX=   5112
   dimension x,y,z NGX =    60 NGY =   60 NGZ =   60
   dimension x,y,z NGXF=   120 NGYF=  120 NGZF=  120
   support grid    NGXF=   120 NGYF=  120 NGZF=  120
   ions per type =              63   1  96
   NGX,Y,Z   is equivalent  to a cutoff of   8.17,  8.22,  8.62 a.u.
   NGXF,Y,Z  is equivalent  to a cutoff of  16.33, 16.44, 17.23 a.u.

 SYSTEM =  unknown system                          
 POSCAR =  Ga Fe  O                                

 Startparameter for this run:
   NWRITE =      2    write-flag & timer
   PREC   = normal    normal or accurate (medium, high low for compatibility)
   ISTART =      1    job   : 0-new  1-cont  2-samecut
   ICHARG =      0    charge: 1-file 2-atom 10-const
   ISPIN  =      2    spin polarized calculation?
   LNONCOLLINEAR =      F non collinear calculations
   LSORBIT =      F    spin-orbit coupling
   INIWAV =      1    electr: 0-lowe 1-rand  2-diag
   LASPH  =      T    aspherical Exc in radial PAW
   METAGGA=      F    non-selfconsistent MetaGGA calc.

 Electronic Relaxation 1
   ENCUT  =  400.0 eV  29.40 Ry    5.42 a.u.  19.92 19.78 18.88*2*pi/ulx,y,z
   ENINI  =  400.0     initial cutoff
   ENAUG  =  605.4 eV  augmentation charge cutoff
   NELM   =     40;   NELMIN=  2; NELMDL=  0     # of ELM steps 
   EDIFF  = 0.1E-03   stopping-criterion for ELM
   LREAL  =      T    real-space projection
   NLSPLINE    = F    spline interpolate recip. space projectors
   LCOMPAT=      F    compatible to vasp.4.4
   GGA_COMPAT  = T    GGA compatible to vasp.4.4-vasp.4.6
   LMAXPAW     = -100 max onsite density
   LMAXMIX     =    2 max onsite mixed and CHGCAR
   VOSKOWN=      0    Vosko Wilk Nusair interpolation
   ROPT   =   -0.00050  -0.00050  -0.00050
 Ionic relaxation
   EDIFFG = 0.1E-02   stopping-criterion for IOM
   NSW    =     45    number of steps for IOM
   NBLOCK =      1;   KBLOCK =     45    inner block; outer block 
   IBRION =      2    ionic relax: 0-MD 1-quasi-New 2-CG
   NFREE  =      1    steps in history (QN), initial steepest desc. (CG)
   ISIF   =      0    stress and relaxation
   IWAVPR =     11    prediction:  0-non 1-charg 2-wave 3-comb
   ISYM   =      3    0-nonsym 1-usesym 2-fastsym
   LCORR  =      T    Harris-Foulkes like correction to forces

   POTIM  = 0.3500    time-step for ionic-motion
   TEIN   =    0.0    initial temperature
   TEBEG  =    0.0;   TEEND  =   0.0 temperature during run
   SMASS  =  -3.00    Nose mass-parameter (am)
   estimated Nose-frequenzy (Omega)   =  0.10E-29 period in steps =****** mass=  -0.341E-26a.u.
   SCALEE = 1.0000    scale energy and forces
   NPACO  =    256;   APACO  = 16.0  distance and # of slots for P.C.
   PSTRESS=    0.0 pullay stress

  Mass of Ions in am
   POMASS =  69.72 55.85 16.00
  Ionic Valenz
   ZVAL   =  13.00 14.00  6.00
  Atomic Wigner-Seitz radii
   RWIGS  =  -1.00 -1.00 -1.00
  virtual crystal weights 
   VCA    =   1.00  1.00  1.00
   NELECT =    1408.0000    total number of electrons
   NUPDOWN=       4.0000    fix difference up-down

 DOS related values:
   EMIN   =  10.00;   EMAX   =-10.00  energy-range for DOS
   EFERMI =   0.00
   ISMEAR =     0;   SIGMA  =   0.05  broadening in eV -4-tet -1-fermi 0-gaus

 Electronic relaxation 2 (details)
   IALGO  =     58    algorithm
   LDIAG  =      T    sub-space diagonalisation (order eigenvalues)
   LSUBROT=      F    optimize rotation matrix (better conditioning)
   TURBO    =      0    0=normal 1=particle mesh
   IRESTART =      0    0=no restart 2=restart with 2 vectors
   NREBOOT  =      0    no. of reboots
   NMIN     =      0    reboot dimension
   EREF     =   0.00    reference energy to select bands
   IMIX   =      4    mixing-type and parameters
     AMIX     =   0.40;   BMIX     =  1.00
     AMIX_MAG =   1.60;   BMIX_MAG =  1.00
     AMIN     =   0.10
     WC   =   100.;   INIMIX=   1;  MIXPRE=   1;  MAXMIX= -45

 Intra band minimization:
   WEIMIN = 0.0010     energy-eigenvalue tresh-hold
   EBREAK =  0.29E-07  absolut break condition
   DEPER  =   0.30     relativ break condition  

   TIME   =   0.40     timestep for ELM

  volume/ion in A,a.u.               =      10.41        70.27
  Fermi-wavevector in a.u.,A,eV,Ry     =   1.547814  2.924945 32.595872  2.395729
  Thomas-Fermi vector in A             =   2.652854
 
 Write flags
   LWAVE        =      T    write WAVECAR
   LDOWNSAMPLE  =      F    k-point downsampling of WAVECAR
   LCHARG       =      F    write CHGCAR
   LVTOT        =      F    write LOCPOT, total local potential
   LVHAR        =      T    write LOCPOT, Hartree potential only
   LELF         =      F    write electronic localiz. function (ELF)
   LORBIT       =     10    0 simple, 1 ext, 2 COOP (PROOUT), +10 PAW based schemes


 Dipole corrections
   LMONO  =      F    monopole corrections only (constant potential shift)
   LDIPOL =      F    correct potential (dipole corrections)
   IDIPOL =      0    1-x, 2-y, 3-z, 4-all directions 
   EPSILON=  1.0000000 bulk dielectric constant

 Exchange correlation treatment:
   GGA     =    --    GGA type
   LEXCH   =     8    internal setting for exchange type
   VOSKOWN=      0    Vosko Wilk Nusair interpolation
   EXXOEP  =     0    0=HF, 1=EXX-LHF (local Hartree Fock) 2=EXX OEP
   LHFCALC =     T    Hartree Fock is set to
   LSYMGRAD=     F    symmetrize gradient (conserves proper symmetry)
   PRECFOCK=fast      Normal, Fast or Accurate (Low or Medium for compatibility)
   LRHFCALC=     F    long range Hartree Fock
   LRSCOR  =     F    long range correlation only (use DFT for short range part)
   LTHOMAS =     F    Thomas Fermi screening in HF
   LMODELHF=     F    short range full HF, long range fraction AEXX
   ENCUT4O =  -1.0   cutoff for four orbital integrals eV
   LMAXFOCK=     4    L truncation for augmentation on plane wave grid
   LMAXFOCKAE=  -1    L truncation for all-electron charge restoration on plane wave grid
   NMAXFOCKAE=   1    number of basis functions for all-electron charge restoration
   LFOCKAEDFT=     F  apply the AE augmentation even for DFT
   NKREDX  =     1    reduce k-point grid by
   NKREDY  =     1    reduce k-point grid by
   NKREDZ  =     1    reduce k-point grid by
   SHIFTRED=     F    shift reduced grid of Gamma
   HFKIDENT=     F    idential grid for each k-point
   ODDONLY =     F    use only odd q-grid points
   EVENONLY=     F    use only even q-grid points
   HFALPHA =   -1.0000 decay constant for conv. correction
   MCALPHA =    0.0000 extent of test-charge in conv. correction in multipole expansion
   AEXX    =    0.3200 exact exchange contribution
   HFSCREEN=    0.2000 screening length (either q_TF or 0.3 A-1)
   HFSCREENC=   0.2000 screening length for correlation (either q_TF or 0.3 A-1)
   HFRCUT  =    0.0000 spherical cutoff for potential kernel
   ALDAX   =    0.6800 LDA exchange part
   AGGAX   =    0.6800 GGA exchange part
   ALDAC   =    1.0000 LDA correlation
   AGGAC   =    1.0000 GGA correlation
   ENCUTFOCK=  -1.0 apply spherical cutoff to Coloumb kernel
   NBANDSGWLOW=     1    first orbital included in HF term
   NBLOCK_FOCK=    64    blocking factor in FOCK_ACC
 Linear response parameters
   LEPSILON=     F    determine dielectric tensor
   LRPA    =     F    only Hartree local field effects (RPA)
   LNABLA  =     F    use nabla operator in PAW spheres
   LVEL    =     F    velocity operator in full k-point grid
   LINTERFAST=   F  fast interpolation
   KINTER  =     0    interpolate to denser k-point grid
   CSHIFT  =0.1000    complex shift for real part using Kramers Kronig
   OMEGAMAX=  -1.0    maximum frequency
   DEG_THRESHOLD= 0.2000000E-02 threshold for treating states as degnerate
   RTIME   =   -0.100 relaxation time in fs
  (WPLASMAI=    0.000 imaginary part of plasma frequency in eV, 0.658/RTIME)
   DFIELD  = 0.0000000 0.0000000 0.0000000 field for delta impulse in time
 
 Orbital magnetization related:
   ORBITALMAG=     F  switch on orbital magnetization
   LCHIMAG   =     F  perturbation theory with respect to B field
   DQ        =  0.001000  dq finite difference perturbation B field
   LLRAUG    =     F  two centre corrections for induced B field



--------------------------------------------------------------------------------------------------------


 conjugate gradient relaxation of ions
 charge density and potential will be updated during run
 spin polarized calculation
 Conjugate gradient for all bands (Freysoldt, et al. PRB 79, 241103 (2009))
 preconditioned conjugated gradient                                        
 perform sub-space diagonalisation
    before iterative eigenvector-optimisation
 modified Broyden-mixing scheme, WC =      100.0
 initial mixing is a Kerker type mixing with AMIX =  0.4000 and BMIX =      1.0000
 Hartree-type preconditioning will be used
 using additional bands          160
 real space projection scheme for non local part
 use partial core corrections
 no Harris-corrections to forces 
 use gradient corrections 
 use of overlap-Matrix (Vanderbilt PP)
 Gauss-broadening in eV      SIGMA  =   0.05


--------------------------------------------------------------------------------------------------------


  energy-cutoff  :      400.00
  volume of cell :     1665.98
      direct lattice vectors                 reciprocal lattice vectors
    11.860900622  0.000000000 -2.912624073     0.084310630  0.000000000  0.000000000
     0.000000000 12.131861322  0.000000000     0.000000000  0.082427583  0.000000000
     0.000000000  0.000000000 11.577785773     0.021210029  0.000000000  0.086372301

  length of vectors
    12.213285494 12.131861322 11.577785773     0.084310630  0.082427583  0.088938404


 
 old parameters found on file WAVECAR:
  energy-cutoff  :      400.00
  volume of cell :     1665.98
      direct lattice vectors                 reciprocal lattice vectors
    11.860900622  0.000000000 -2.912624073     0.084310630  0.000000000  0.000000000
     0.000000000 12.131861322  0.000000000     0.000000000  0.082427583  0.000000000
     0.000000000  0.000000000 11.577785773     0.021210029  0.000000000  0.086372301

  length of vectors

 
 k-points in units of 2pi/SCALE and weight: KPOINTS created by Atomic Simulation Env
   0.02638016  0.02060690  0.02159308       1.000
 
 k-points in reciprocal lattice and weights: KPOINTS created by Atomic Simulation Env
   0.25000000  0.25000000  0.25000000       1.000
 
 position of ions in fractional coordinates (direct lattice) 
   0.09009458  0.99984115  0.39605461
   0.41078147  0.62525777  0.60411720
   0.58914508  0.62514929  0.89586324
   0.15970552  0.62505736  0.65532321
   0.84026725  0.62500264  0.84430194
   0.91017860  0.50013771  0.60360593
   0.08936036  0.50061764  0.89476044
   0.84057323  0.37542052  0.84406179
   0.91135018  0.25006049  0.60420275
   0.08862688  0.25005947  0.89660448
   0.84031851  0.62498161  0.34434187
   0.65968898  0.99982270  0.65637225
   0.15927183  0.62598882  0.15525798
   0.08802916  0.25007475  0.40165996
   0.91141590  0.25008573  0.10379640
   0.84039106  0.37523163  0.34395902
   0.15992112  0.37890905  0.15208954
   0.58966498  0.37701581  0.39635467
   0.41176278  0.37529884  0.10267147
   0.65998136  0.25012988  0.15488510
   0.41090793  0.62524680  0.10352869
   0.34037299  0.50234479  0.34261799
   0.58927708  0.62539019  0.39594007
   0.34071915  0.99965543  0.84396239
   0.41165863  0.12494757  0.60609589
   0.58934938  0.12497635  0.89606882
   0.91040583  0.00038901  0.10403923
   0.84037605  0.12497542  0.34399112
   0.16000500  0.12119896  0.15202168
   0.58964568  0.12322009  0.39634010
   0.41177871  0.12489620  0.10263079
   0.34036407  0.99792201  0.34222158
   0.65952367  0.99969073  0.15562571
   0.09011291  0.50030538  0.39605532
   0.65950713  0.50054406  0.15563296
   0.66014127  0.25009730  0.65648133
   0.91039525  0.49979275  0.10403708
   0.41156631  0.37543154  0.60607462
   0.58943904  0.37536792  0.89606252
   0.15953657  0.37591538  0.65717287
   0.65969303  0.50035631  0.65635465
   0.34072837  0.50056874  0.84398216
   0.08930587  0.99948785  0.89472795
   0.91015449  0.99997500  0.60360612
   0.84055019  0.12476083  0.84409223
   0.15952525  0.12424020  0.65717307
   0.34026968  0.25014024  0.84460770
   0.08828876  0.75008353  0.39600931
   0.91122557  0.75007773  0.10391682
   0.84033216  0.87522667  0.34432473
   0.15919316  0.87415736  0.15524301
   0.58934823  0.87487958  0.39596073
   0.41085862  0.87504527  0.10349468
   0.34018602  0.75016084  0.34503562
   0.65981511  0.75013463  0.15499294
   0.08855498  0.75005620  0.89545033
   0.91151878  0.75006331  0.60407722
   0.84027059  0.87516470  0.84429595
   0.15968212  0.87511893  0.65535208
   0.58921727  0.87519745  0.89588679
   0.41065666  0.87506244  0.60404942
   0.34022304  0.75013336  0.84455324
   0.65989281  0.75010012  0.65514178
   0.34103979  0.25018420  0.34532352
   0.67222408  0.37535818  0.78034021
   0.32768517  0.37540320  0.71964565
   0.50280012  0.25022269  0.87232640
   0.16497637  0.50136561  0.05161070
   0.49715368  0.50015467  0.12835169
   0.99732892  0.62421746  0.12790659
   0.50283130  0.50002062  0.87195870
   0.49703125  0.50007233  0.62698733
   0.33588169  0.62448321  0.94710849
   0.66390111  0.62415276  0.55256185
   0.17250816  0.50001823  0.78005526
   0.82753029  0.49963821  0.71928162
   0.00255808  0.62457265  0.87200529
   0.99735262  0.62427645  0.62750080
   0.83608124  0.49970928  0.94739426
   0.16504958  0.49962105  0.55247558
   0.67232569  0.62433206  0.28065133
   0.32744112  0.62454368  0.21898391
   0.50203474  0.50021500  0.37188981
   0.49703079  0.25020525  0.62663960
   0.33564089  0.62439796  0.44720129
   0.66400132  0.62446047  0.05266818
   0.17309543  0.49918948  0.28002052
   0.82746450  0.49926284  0.21947571
   0.00285263  0.62415725  0.37183267
   0.83570976  0.49966831  0.44684166
   0.33545073  0.37573345  0.94709363
   0.67143166  0.37442843  0.28119896
   0.17249568  0.25010077  0.78200184
   0.17249024  0.00016661  0.78004947
   0.82752949  0.00048631  0.71929763
   0.00323932  0.12442258  0.87300569
   0.99730686  0.12447197  0.62741487
   0.83606910  0.00045455  0.94739575
   0.16507065  0.00053086  0.55247125
   0.67144733  0.12585136  0.28122070
   0.32724341  0.12525685  0.21825370
   0.66303113  0.12521274  0.55235226
   0.50203771  0.00000050  0.37192148
   0.33763787  0.12554171  0.44646132
   0.66367048  0.12446400  0.05299115
   0.17305209  0.00100900  0.28002878
   0.82747283  0.00094456  0.21948326
   0.00375991  0.12497371  0.37116096
   0.99883769  0.12505147  0.12939245
   0.83568732  0.00050466  0.44684416
   0.16486012  0.99868997  0.05155669
   0.49721174  0.00004071  0.12831593
   0.33550670  0.12453039  0.94702093
   0.49695722  0.00021426  0.62687914
   0.50282865  0.00025666  0.87195606
   0.82771165  0.25005751  0.71912019
   0.00325949  0.37571072  0.87300336
   0.99732124  0.37564431  0.62742746
   0.83671885  0.25013482  0.94717164
   0.16555077  0.25007524  0.55539033
   0.32761653  0.62454513  0.71917893
   0.32730567  0.37444461  0.21857200
   0.49796237  0.25012607  0.37255581
   0.49734460  0.25013821  0.12901591
   0.33752626  0.37516000  0.44670949
   0.66369946  0.37579635  0.05299224
   0.18364073  0.25010282  0.29241295
   0.82757277  0.25012266  0.21877443
   0.00377657  0.37518998  0.37113217
   0.99882636  0.37513986  0.12940134
   0.83748517  0.25012973  0.44691790
   0.16258658  0.25009666  0.05549461
   0.67217939  0.12487469  0.78035880
   0.32768574  0.12476389  0.71955795
   0.66306586  0.37495490  0.55234665
   0.67237528  0.62444217  0.78053693
   0.16363626  0.75009234  0.05244891
   0.83650222  0.75012977  0.44709907
   0.99729277  0.87594348  0.12792412
   0.00284116  0.87600034  0.37185233
   0.82754852  0.75010186  0.21907102
   0.17245189  0.75013526  0.28087947
   0.66409836  0.87578636  0.05267464
   0.33559356  0.87601786  0.44712722
   0.49732546  0.75018924  0.12783859
   0.50245182  0.75017293  0.37220951
   0.32740666  0.87557748  0.21894063
   0.67234734  0.87593660  0.28064204
   0.16380160  0.75012019  0.55253049
   0.83636390  0.75011030  0.94717471
   0.99733936  0.87585428  0.62751205
   0.00253457  0.87551766  0.87198064
   0.82747107  0.75005580  0.71889739
   0.17245493  0.75010733  0.78070017
   0.66395758  0.87602585  0.55258268
   0.33581503  0.87579333  0.94710095
   0.49725264  0.75021756  0.62728350
   0.50273720  0.75021744  0.87221298
   0.32759373  0.87564320  0.71919040
   0.67238525  0.87581227  0.78052357
 
 position of ions in cartesian coordinates  (Angst):
   1.06860282 12.12993413  4.32302379
   4.87223820  7.58554061  5.79788747
   6.98779124  7.58422443  8.65615453
   1.89425134  7.58310922  7.12202954
   9.96632630  7.58244535  7.32776437
  10.79553796  6.06760135  4.33741206
   1.05989435  6.07342375 10.09907151
   9.96995553  4.55454971  7.32409282
  10.80943390  3.03369919  4.34090956
   1.05119466  3.03368679 10.12255777
   9.96693430  7.58219019  1.53918446
   7.82450538 12.12971039  5.67791134
   1.88910729  7.59440950  1.33364474
   1.04410515  3.03387215  4.39393715
  10.81021341  3.03400540 -1.45287941
   9.96779489  4.55225810  1.53454061
   1.89680856  4.59687203  1.29507000
   6.99395772  4.57390351  2.87143700
   4.88387743  4.55307349 -0.01060190
   7.82797327  3.03454104 -0.12905109
   4.87373815  7.58540748  0.00181266
   4.03713021  6.09437731  2.97537915
   6.98935688  7.58714704  2.86776674
   4.04123598 12.12768109  8.77882898
   4.88264209  1.51584664  5.81824151
   6.99021437  1.51619577  8.65793970
  10.79823305  0.00471939 -1.44712599
   9.96761676  1.51618446  1.53495599
   1.89780346  1.47036892  1.29404004
   6.99372882  1.49488903  2.87132457
   4.88406631  1.51522339 -0.01111927
   4.03702447 12.10665144  2.97081558
   7.82254468 12.12810934 -0.11914337
   1.06882022  6.06963549  4.32297857
   7.82234848  6.07253114 -0.11901131
   7.82986998  3.03414581  5.67785686
  10.79810764  6.06341628 -1.44712005
   4.88154710  4.55468341  5.81826414
   6.99127782  4.55391159  8.65760552
   1.89224736  4.56055322  7.14393672
   7.82455345  6.07025339  5.67769571
   4.04134530  6.07283048  8.77903098
   1.05924809 12.12564802 10.09885411
  10.79525201 12.13155803  4.33748448
   9.96968226  1.51358114  7.32451229
   1.89211308  1.50726485  7.14397190
   4.03590491  3.03466668  8.78760935
   1.04718415  9.09990939  4.32775900
  10.80795598  9.09983896 -1.45093090
   9.96709628 10.61812857  1.53894624
   1.88817428 10.60515585  1.33370048
   6.99020083 10.61391779  2.86779864
   4.87315323 10.61592787  0.00156248
   4.03491264  9.10084725  3.00391452
   7.82600148  9.10052926 -0.12731833
   1.05034177  9.09957783 10.10940468
  10.81143372  9.09966407  4.33896509
   9.96636602 10.61737681  7.32768531
   1.89397373 10.61682150  7.12243204
   6.98864754 10.61777409  8.65621686
   4.87075784 10.61613613  5.79746633
   4.03535172  9.10051387  8.78711460
   7.82692301  9.10011058  5.66307151
   4.04503905  3.03520003  3.00476099
   7.97318297  4.55379339  7.07667576
   3.88664124  4.55433956  7.37747946
   5.96366222  3.03566693  8.63514045
   1.95676828  6.08249799  0.11702353
   5.89669038  6.06780710  0.03800656
  11.82921919  7.57291961 -1.42396917
   5.96403206  6.06618083  8.63079246
   5.89523825  6.06680817  5.81145979
   3.98385937  7.57614367  9.98712207
   7.87446514  7.57213475  4.46374834
   2.04610212  6.06615186  8.52886130
   9.81525449  6.06154146  5.91740386
   0.03034115  7.57722874 10.08843972
  11.82950037  7.57363528  4.36015656
   9.91667650  6.06240363  8.53353741
   1.95763670  6.06133330  5.91571658
   7.97438814  7.57431002  1.29108902
   3.88374659  7.57687732  1.58163593
   5.95458412  6.06853907  2.84342209
   5.89523282  3.03545542  5.80743523
   3.98100325  7.57510952  4.20000498
   7.87565372  7.57586787 -1.32420531
   2.05306772  6.05609751  2.73785570
   9.81447417  6.05698751  0.13094971
   0.03383475  7.57218915  4.29669033
   9.91227036  6.06190667  2.73932861
   3.97874783  4.55834611  9.98820527
   7.96378423  4.54251376  1.30003334
   2.04595417  3.03418787  8.55143471
   2.04588964  0.00202124  8.52884640
   9.81524501  0.00589986  5.91759160
   0.03842128  1.50947743 10.09803795
  11.82895757  1.51007671  4.35929497
   9.91653255  0.00551452  8.53359005
   1.95788660  0.00644031  5.91560505
   7.96397006  1.52681123  1.30023931
   3.88140158  1.51959869  1.57375754
   7.86414638  1.51906356  4.46385570
   5.95461944  0.00000611  2.84378010
   4.00468925  1.52305457  4.18562136
   7.87172957  1.50997999 -1.31950247
   2.05255369  0.01224103  2.73807759
   9.81457305  0.01145929  0.13101287
   0.04459597  1.51616370  4.28627088
  11.84711459  1.51710711 -1.41116063
   9.91200422  0.00612251  2.73942296
   1.95538948 12.11596826  0.11673671
   5.89737903  0.00049390  0.03742344
   3.97941169  1.51078548  9.98720058
   5.89436022  0.00259939  5.81042278
   5.96400070  0.00311378  8.63076962
   9.81740559  3.03366300  5.91500668
   0.03866044  4.55807030 10.09795218
  11.82912807  4.55726461  4.35939884
   9.92423911  3.03460095  8.52910291
   1.96358120  3.03387808  5.94800309
   3.88582711  7.57689487  7.37227579
   3.88214000  4.54271006  1.57726140
   5.90628221  3.03449474  2.86299411
   5.89895486  3.03464203  0.04514070
   4.00336546  4.55138907  4.18881966
   7.87207333  4.55910921 -1.31957419
   2.17814440  3.03421278  2.85061805
   9.81575836  3.03445337  0.12251513
   0.04479350  4.55175286  4.28588898
  11.84698019  4.55114473 -1.41102469
   9.93332833  3.03453916  2.73504020
   1.92842325  3.03413799  0.16895113
   7.97265292  1.51496247  7.07702117
   3.88664802  1.51361825  7.37646237
   7.86455821  4.54890086  4.46368956
   7.97497641  7.57564583  7.07851289
   1.94087347  9.10001631  0.13063135
   9.92166972  9.10047029  2.74000072
  11.82879042 10.62682482 -1.42366086
   0.03369868 10.62751467  4.29695142
   9.81547076  9.10013177  0.12601961
   2.04543473  9.10053691  2.74967482
   7.87680470 10.62491868 -1.32441323
   3.98044186 10.62772719  4.19928524
   5.89872790  9.10119186  0.03156573
   5.95953107  9.10099395  2.84590874
   3.88333789 10.62238459  1.58123524
   7.97464501 10.62674138  1.29091838
   1.94283455  9.10035412  5.91998719
   9.92002914  9.10023419  8.53017225
  11.82934304 10.62574271  4.36032543
   0.03006231 10.62165885 10.08822277
   9.81455213  9.09957291  5.91312785
   2.04547079  9.10019808  8.53648290
   7.87513486 10.62782412  4.46382507
   3.98306865 10.62500325  9.98722899
   5.89786419  9.10153546  5.81424402
   5.96291599  9.10153392  8.63401052
   3.88555665 10.62318183  7.37247495
   7.97509467 10.62523306  7.07832925
 


--------------------------------------------------------------------------------------------------------


 k-point  1 :   0.2500 0.2500 0.2500  plane waves:   30269

 maximum and minimum number of plane-waves per node :     30269    30269

 maximum number of plane-waves:     30269
 maximum index in each direction: 
   IXMAX=   19   IYMAX=   19   IZMAX=   18
   IXMIN=  -20   IYMIN=  -20   IZMIN=  -19


 serial   3D FFT for wavefunctions
 parallel 3D FFT for charge:
    minimum data exchange during FFTs selected (reduces bandwidth)


 FFT grid for exact exchange (Hartree Fock) 
  NGX = 42; NGY = 42; NGZ = 40

 
 Radii for the augmentation spheres in the non-local exchange
 for species   1 augmentation radius   1.277 (default was   1.031)
       energy cutoff for augmentation   1600.0
 for species   2 augmentation radius   1.215 (default was   0.950)
       energy cutoff for augmentation   1600.0
 for species   3 augmentation radius   0.820 (default was   0.722)
       energy cutoff for augmentation   1600.0
 Maximum index for augmentation-charges in exchange          380
  SETUP_FOCK is finished

 total amount of memory used by VASP MPI-rank0    98723. kBytes
=======================================================================

   base      :      30000. kBytes
   nonlr-proj:      34099. kBytes
   fftplans  :       1403. kBytes
   grid      :      18679. kBytes
   one-center:       4976. kBytes
   HF        :        194. kBytes
   wavefun   :       9372. kBytes
 
     INWAV:  cpu time    2.2770: real time    2.5913
 Broyden mixing: mesh for mixing (old mesh)
   NGX = 39   NGY = 39   NGZ = 37
  (NGX  =120   NGY  =120   NGZ  =120)
  gives a total of  56277 points

 charge density for first step will be calculated from the start-wavefunctions


--------------------------------------------------------------------------------------------------------


 Maximum index for non-local projection operator         1795
 Maximum index for augmentation-charges          168 (set IRDMAX)


--------------------------------------------------------------------------------------------------------


 initial charge from wavefunction
 First call to EWALD:  gamma=   0.150
 Maximum number of real-space cells 3x 3x 3
 Maximum number of reciprocal cells 3x 3x 3

    FEWALD:  cpu time    0.0057: real time    0.0059


--------------------------------------- Iteration      1(   1)  ---------------------------------------


    POTLOK:  cpu time    0.1031: real time    0.1042
    SETDIJ:  cpu time    1.7910: real time    1.7913
    TRIAL :  cpu time   78.8058: real time   78.9814
    CORREC:  cpu time   79.1847: real time   79.3551
    CHARGE:  cpu time    0.1343: real time    0.1343
    --------------------------------------------
      LOOP:  cpu time  160.0386: real time  160.3893

 eigenvalue-minimisations  :     0
 total energy-change (2. order) :-0.1521617E+04  (-0.1369658E-02)
 number of electron    1408.0004160 magnetization       3.9999993
 augmentation part      614.5220559 magnetization       3.0144351

 Free energy of the ion-electron system (eV)
  ---------------------------------------------------
  alpha Z        PSCENC =      9581.60805417
  Ewald energy   TEWEN  =   -119132.43007913
  -Hartree energ DENC   =    -45105.79492735
  -exchange      EXHF   =      5296.24411712
  -V(xc)+E(xc)   XCENC  =      4770.29175620
  PAW double counting   =    128158.43278180  -149789.41587984
  entropy T*S    EENTRO =        -0.00000000
  eigenvalues    EBANDS =    -13927.57577905
  atomic energy  EATOM  =    178627.02312980
  ---------------------------------------------------
  free energy    TOTEN  =     -1521.61682627 eV

  energy without entropy =    -1521.61682627  energy(sigma->0) =    -1521.61682627
  exchange ACFDT corr.  =         0.00000000  see jH, gK, PRB 81, 115126


--------------------------------------------------------------------------------------------------------




--------------------------------------- Iteration      1(   2)  ---------------------------------------


    POTLOK:  cpu time    0.0948: real time    0.0959
    SETDIJ:  cpu time    1.7481: real time    1.7481
    TRIAL :  cpu time   78.1825: real time   78.3554
    CORREC:  cpu time   78.8575: real time   79.0328
    CHARGE:  cpu time    0.1347: real time    0.1347
    --------------------------------------------
      LOOP:  cpu time  159.0201: real time  159.3886

 eigenvalue-minimisations  :     0
 total energy-change (2. order) :-0.1365816E-02  (-0.4370525E-03)
 number of electron    1408.0004159 magnetization       3.9999993
 augmentation part      614.5065243 magnetization       3.0140361

 Free energy of the ion-electron system (eV)
  ---------------------------------------------------
  alpha Z        PSCENC =      9581.60805417
  Ewald energy   TEWEN  =   -119132.43007913
  -Hartree energ DENC   =    -45108.97287543
  -exchange      EXHF   =      5296.42206577
  -V(xc)+E(xc)   XCENC  =      4770.43075486
  PAW double counting   =    128151.40555722  -149784.35244384
  entropy T*S    EENTRO =        -0.00000000
  eigenvalues    EBANDS =    -13922.75235552
  atomic energy  EATOM  =    178627.02312980
  ---------------------------------------------------
  free energy    TOTEN  =     -1521.61819209 eV

  energy without entropy =    -1521.61819209  energy(sigma->0) =    -1521.61819209
  exchange ACFDT corr.  =         0.00000000  see jH, gK, PRB 81, 115126


--------------------------------------------------------------------------------------------------------




--------------------------------------- Iteration      1(   3)  ---------------------------------------


    POTLOK:  cpu time    0.0928: real time    0.0938
    SETDIJ:  cpu time    1.7495: real time    1.7497
    TRIAL :  cpu time   78.3897: real time   78.5567
    CORREC:  cpu time   78.6783: real time   78.8717
    CHARGE:  cpu time    0.1344: real time    0.1345
    --------------------------------------------
      LOOP:  cpu time  159.0491: real time  159.4275

 eigenvalue-minimisations  :     0
 total energy-change (2. order) :-0.4366596E-03  (-0.1689153E-03)
 number of electron    1408.0004159 magnetization       3.9999993
 augmentation part      614.5032720 magnetization       3.0135793

 Free energy of the ion-electron system (eV)
  ---------------------------------------------------
  alpha Z        PSCENC =      9581.60805417
  Ewald energy   TEWEN  =   -119132.43007913
  -Hartree energ DENC   =    -45107.43923147
  -exchange      EXHF   =      5296.37095765
  -V(xc)+E(xc)   XCENC  =      4770.38319201
  PAW double counting   =    128144.99740417  -149776.24912512
  entropy T*S    EENTRO =        -0.00000000
  eigenvalues    EBANDS =    -13925.88293084
  atomic energy  EATOM  =    178627.02312980
  ---------------------------------------------------
  free energy    TOTEN  =     -1521.61862875 eV

  energy without entropy =    -1521.61862875  energy(sigma->0) =    -1521.61862875
  exchange ACFDT corr.  =        -0.00000000  see jH, gK, PRB 81, 115126


--------------------------------------------------------------------------------------------------------




--------------------------------------- Iteration      1(   4)  ---------------------------------------


    POTLOK:  cpu time    0.0910: real time    0.0920
    SETDIJ:  cpu time    1.7883: real time    1.7885
    TRIAL :  cpu time   78.2750: real time   78.4584
    CORREC:  cpu time   79.1072: real time   79.2997
    CHARGE:  cpu time    0.1340: real time    0.1340
    --------------------------------------------
      LOOP:  cpu time  159.3979: real time  159.7928

 eigenvalue-minimisations  :     0
 total energy-change (2. order) :-0.1689798E-03  (-0.9743608E-04)
 number of electron    1408.0004159 magnetization       3.9999993
 augmentation part      614.5072182 magnetization       3.0129638

 Free energy of the ion-electron system (eV)
  ---------------------------------------------------
  alpha Z        PSCENC =      9581.60805417
  Ewald energy   TEWEN  =   -119132.43007913
  -Hartree energ DENC   =    -45107.12769261
  -exchange      EXHF   =      5296.34268719
  -V(xc)+E(xc)   XCENC  =      4770.36538912
  PAW double counting   =    128143.51946243  -149774.74009387
  entropy T*S    EENTRO =        -0.00000000
  eigenvalues    EBANDS =    -13926.17965484
  atomic energy  EATOM  =    178627.02312980
  ---------------------------------------------------
  free energy    TOTEN  =     -1521.61879772 eV

  energy without entropy =    -1521.61879772  energy(sigma->0) =    -1521.61879772
  exchange ACFDT corr.  =        -0.00000000  see jH, gK, PRB 81, 115126


--------------------------------------------------------------------------------------------------------




--------------------------------------- Iteration      1(   5)  ---------------------------------------


    POTLOK:  cpu time    0.0906: real time    0.0916
    SETDIJ:  cpu time    1.7328: real time    1.7330
    TRIAL :  cpu time   78.3034: real time   78.4965
    CORREC:  cpu time   78.8924: real time   79.0896
    CHARGE:  cpu time    0.1354: real time    0.1354
    --------------------------------------------
      LOOP:  cpu time  159.1582: real time  159.5663

 eigenvalue-minimisations  :     0
 total energy-change (2. order) :-0.9724316E-04  (-0.1082171E-03)
 number of electron    1408.0004159 magnetization       3.9999993
 augmentation part      614.5071389 magnetization       3.0117294

 Free energy of the ion-electron system (eV)
  ---------------------------------------------------
  alpha Z        PSCENC =      9581.60805417
  Ewald energy   TEWEN  =   -119132.43007913
  -Hartree energ DENC   =    -45107.71127321
  -exchange      EXHF   =      5296.36033305
  -V(xc)+E(xc)   XCENC  =      4770.38120699
  PAW double counting   =    128144.27976347  -149776.11500072
  entropy T*S    EENTRO =        -0.00000000
  eigenvalues    EBANDS =    -13925.01502941
  atomic energy  EATOM  =    178627.02312980
  ---------------------------------------------------
  free energy    TOTEN  =     -1521.61889497 eV

  energy without entropy =    -1521.61889497  energy(sigma->0) =    -1521.61889497
  exchange ACFDT corr.  =        -0.00000000  see jH, gK, PRB 81, 115126


--------------------------------------------------------------------------------------------------------




--------------------------------------- Iteration      1(   6)  ---------------------------------------


    POTLOK:  cpu time    0.0912: real time    0.0922
    SETDIJ:  cpu time    1.7509: real time    1.7511
    TRIAL :  cpu time   78.1142: real time   78.3038
    CORREC:  cpu time   78.9679: real time   79.1547
    CHARGE:  cpu time    0.1346: real time    0.1347
    --------------------------------------------
      LOOP:  cpu time  159.0781: real time  159.4562

 eigenvalue-minimisations  :     0
 total energy-change (2. order) :-0.1060517E-03  (-0.6501712E-04)
 number of electron    1408.0004159 magnetization       3.9999993
 augmentation part      614.5050948 magnetization       3.0107062

 Free energy of the ion-electron system (eV)
  ---------------------------------------------------
  alpha Z        PSCENC =      9581.60805417
  Ewald energy   TEWEN  =   -119132.43007913
  -Hartree energ DENC   =    -45108.03806487
  -exchange      EXHF   =      5296.39543265
  -V(xc)+E(xc)   XCENC  =      4770.39624417
  PAW double counting   =    128145.56186511  -149777.26433417
  entropy T*S    EENTRO =        -0.00000000
  eigenvalues    EBANDS =    -13924.87124877
  atomic energy  EATOM  =    178627.02312980
  ---------------------------------------------------
  free energy    TOTEN  =     -1521.61900102 eV

  energy without entropy =    -1521.61900102  energy(sigma->0) =    -1521.61900102
  exchange ACFDT corr.  =        -0.00000000  see jH, gK, PRB 81, 115126


--------------------------------------------------------------------------------------------------------




--------------------------------------- Iteration      1(   7)  ---------------------------------------


    POTLOK:  cpu time    0.0942: real time    0.0942
    SETDIJ:  cpu time    1.7434: real time    1.7438
    TRIAL :  cpu time   78.4221: real time   78.5962
    CORREC:  cpu time   78.8996: real time   79.0917
    EDDIAG:  cpu time   76.5921: real time   76.7526
    CHARGE:  cpu time    0.1363: real time    0.1365
    --------------------------------------------
      LOOP:  cpu time  235.9037: real time  236.4316

 eigenvalue-minimisations  :     0
 total energy-change (2. order) :-0.6509345E-04  (-0.3274860E-04)
 number of electron    1408.0004159 magnetization       3.9999993
 augmentation part      614.5073386 magnetization       3.0100637

 Free energy of the ion-electron system (eV)
  ---------------------------------------------------
  alpha Z        PSCENC =      9581.60805417
  Ewald energy   TEWEN  =   -119132.43007913
  -Hartree energ DENC   =    -45107.69730270
  -exchange      EXHF   =      5296.37170803
  -V(xc)+E(xc)   XCENC  =      4770.38418668
  PAW double counting   =    128145.95167940  -149777.33718942
  entropy T*S    EENTRO =        -0.00000000
  eigenvalues    EBANDS =    -13925.50828259
  atomic energy  EATOM  =    178627.02312980
  ---------------------------------------------------
  free energy    TOTEN  =     -1521.61906611 eV

  energy without entropy =    -1521.61906611  energy(sigma->0) =    -1521.61906611
  exchange ACFDT corr.  =        -0.00000000  see jH, gK, PRB 81, 115126


--------------------------------------------------------------------------------------------------------


  average scaling for gradient   0.9992


 average (electrostatic) potential at core
  the test charge radii are     1.0314  0.9500  0.7215
  (the norm of the test charge is              1.0000)
       1 -20.1330       2 -20.1098       3 -20.0740       4 -20.0372       5 -20.0314
       6 -20.0677       7 -20.1112       8 -20.0484       9 -20.1205      10 -20.1994
      11 -20.0416      12 -20.0450      13 -20.1079      14 -20.3774      15 -20.1822
      16 -20.0841      17 -20.3021      18 -20.3865      19 -20.1875      20 -20.0867
      21 -20.1100      22 -20.1899      23 -20.1322      24 -20.0243      25 -20.2738
      26 -20.1040      27 -20.1294      28 -20.0851      29 -20.2971      30 -20.3876
      31 -20.1798      32 -20.1937      33 -20.0363      34 -20.1334      35 -20.0372
      36 -20.1019      37 -20.1300      38 -20.2592      39 -20.1019      40 -20.0592
      41 -20.0429      42 -20.0239      43 -20.1102      44 -20.0679      45 -20.0501
      46 -20.0603      47 -20.0859      48 -20.1195      49 -20.1103      50 -20.0400
      51 -20.1057      52 -20.1315      53 -20.1077      54 -20.1270      55 -20.0586
      56 -20.1047      57 -20.0838      58 -20.0303      59 -20.0365      60 -20.0726
      61 -20.1096      62 -20.0494      63 -20.0616      64 -42.4613      65 -63.6494
      66 -63.6801      67 -63.4909      68 -63.2882      69 -63.5002      70 -63.4828
      71 -63.4482      72 -63.5127      73 -63.1513      74 -63.1528      75 -63.6547
      76 -63.6163      77 -63.4655      78 -63.4432      79 -63.1416      80 -63.1508
      81 -63.6260      82 -63.6984      83 -63.5782      84 -63.5837      85 -63.2175
      86 -63.1444      87 -63.7432      88 -63.6447      89 -63.4775      90 -63.1512
      91 -63.2014      92 -63.7032      93 -63.6468      94 -63.6560      95 -63.6162
      96 -63.5013      97 -63.4732      98 -63.1415      99 -63.1526     100 -63.7041
     101 -63.9233     102 -63.2541     103 -63.5795     104 -63.7449     105 -63.1769
     106 -63.7409     107 -63.6443     108 -63.5955     109 -63.5948     110 -63.1513
     111 -63.2843     112 -63.4974     113 -63.2018     114 -63.5183     115 -63.4493
     116 -63.6595     117 -63.5006     118 -63.4726     119 -63.1873     120 -63.2917
     121 -63.6168     122 -63.9557     123 -64.4742     124 -63.5680     125 -63.6956
     126 -63.1760     127 -64.7714     128 -63.6740     129 -63.5953     130 -63.5972
     131 -63.1909     132 -63.4212     133 -63.6503     134 -63.6821     135 -63.2525
     136 -63.6157     137 -63.2050     138 -63.1463     139 -63.4829     140 -63.4773
     141 -63.6206     142 -63.6832     143 -63.1431     144 -63.2158     145 -63.4783
     146 -63.5093     147 -63.6998     148 -63.6255     149 -63.1619     150 -63.1439
     151 -63.4434     152 -63.4652     153 -63.6043     154 -63.6114     155 -63.1524
     156 -63.1502     157 -63.4770     158 -63.4523     159 -63.6175     160 -63.6164
 
 
 
 E-fermi :   0.9761     XC(G=0):  -8.8767     alpha+bet :-11.2476


 spin component 1

 k-point     1 :       0.2500    0.2500    0.2500
  band No.  band energies     occupation 
      1     -62.2367      1.00000
      2     -62.2216      1.00000
      3     -62.2027      1.00000
      4     -20.0443      1.00000
      5     -19.8870      1.00000
      6     -19.8264      1.00000
      7     -19.7952      1.00000
      8     -19.6651      1.00000
      9     -19.6348      1.00000
     10     -19.6130      1.00000
     11     -19.4780      1.00000
     12     -19.4372      1.00000
     13     -19.4041      1.00000
     14     -19.3293      1.00000
     15     -19.3184      1.00000
     16     -19.2791      1.00000
     17     -19.2525      1.00000
     18     -19.2087      1.00000
     19     -19.1767      1.00000
     20     -19.1402      1.00000
     21     -19.1285      1.00000
     22     -19.0939      1.00000
     23     -19.0613      1.00000
     24     -19.0549      1.00000
     25     -19.0196      1.00000
     26     -19.0061      1.00000
     27     -18.9768      1.00000
     28     -18.9728      1.00000
     29     -18.9626      1.00000
     30     -18.9556      1.00000
     31     -18.9238      1.00000
     32     -18.9094      1.00000
     33     -18.8959      1.00000
     34     -18.8778      1.00000
     35     -18.8724      1.00000
     36     -18.8585      1.00000
     37     -18.8419      1.00000
     38     -18.8252      1.00000
     39     -18.8109      1.00000
     40     -18.8013      1.00000
     41     -18.7927      1.00000
     42     -18.7815      1.00000
     43     -18.7719      1.00000
     44     -18.7389      1.00000
     45     -18.7301      1.00000
     46     -18.7245      1.00000
     47     -18.6973      1.00000
     48     -18.6882      1.00000
     49     -18.6711      1.00000
     50     -18.6659      1.00000
     51     -18.6477      1.00000
     52     -18.6428      1.00000
     53     -18.6266      1.00000
     54     -18.6199      1.00000
     55     -18.6105      1.00000
     56     -18.6056      1.00000
     57     -18.5967      1.00000
     58     -18.5760      1.00000
     59     -18.5724      1.00000
     60     -18.5605      1.00000
     61     -18.5517      1.00000
     62     -18.5487      1.00000
     63     -18.5423      1.00000
     64     -18.5177      1.00000
     65     -18.5134      1.00000
     66     -18.5084      1.00000
     67     -18.5033      1.00000
     68     -18.4947      1.00000
     69     -18.4802      1.00000
     70     -18.4670      1.00000
     71     -18.4553      1.00000
     72     -18.4368      1.00000
     73     -18.4128      1.00000
     74     -18.4058      1.00000
     75     -18.3923      1.00000
     76     -18.3868      1.00000
     77     -18.3628      1.00000
     78     -18.3560      1.00000
     79     -18.3351      1.00000
     80     -18.3293      1.00000
     81     -18.3239      1.00000
     82     -18.3128      1.00000
     83     -18.2993      1.00000
     84     -18.2936      1.00000
     85     -18.2766      1.00000
     86     -18.2737      1.00000
     87     -18.2686      1.00000
     88     -18.2664      1.00000
     89     -18.2573      1.00000
     90     -18.2528      1.00000
     91     -18.2419      1.00000
     92     -18.2348      1.00000
     93     -18.2316      1.00000
     94     -18.2233      1.00000
     95     -18.2062      1.00000
     96     -18.1931      1.00000
     97     -18.1885      1.00000
     98     -18.1728      1.00000
     99     -18.1503      1.00000
    100     -14.4024      1.00000
    101     -14.3589      1.00000
    102     -14.3327      1.00000
    103     -14.3267      1.00000
    104     -14.3155      1.00000
    105     -14.2997      1.00000
    106     -14.2914      1.00000
    107     -14.2790      1.00000
    108     -14.2772      1.00000
    109     -14.2710      1.00000
    110     -14.2630      1.00000
    111     -14.2549      1.00000
    112     -14.2508      1.00000
    113     -14.2456      1.00000
    114     -14.2411      1.00000
    115     -14.2362      1.00000
    116     -14.2351      1.00000
    117     -14.2298      1.00000
    118     -14.2274      1.00000
    119     -14.2204      1.00000
    120     -14.2177      1.00000
    121     -14.2137      1.00000
    122     -14.2107      1.00000
    123     -14.2058      1.00000
    124     -14.2047      1.00000
    125     -14.2037      1.00000
    126     -14.2002      1.00000
    127     -14.1967      1.00000
    128     -14.1930      1.00000
    129     -14.1902      1.00000
    130     -14.1869      1.00000
    131     -14.1827      1.00000
    132     -14.1811      1.00000
    133     -14.1784      1.00000
    134     -14.1738      1.00000
    135     -14.1717      1.00000
    136     -14.1662      1.00000
    137     -14.1651      1.00000
    138     -14.1640      1.00000
    139     -14.1599      1.00000
    140     -14.1576      1.00000
    141     -14.1535      1.00000
    142     -14.1512      1.00000
    143     -14.1492      1.00000
    144     -14.1458      1.00000
    145     -14.1436      1.00000
    146     -14.1381      1.00000
    147     -14.1361      1.00000
    148     -14.1352      1.00000
    149     -14.1316      1.00000
    150     -14.1301      1.00000
    151     -14.1274      1.00000
    152     -14.1270      1.00000
    153     -14.1234      1.00000
    154     -14.1216      1.00000
    155     -14.1188      1.00000
    156     -14.1169      1.00000
    157     -14.1152      1.00000
    158     -14.1137      1.00000
    159     -14.1094      1.00000
    160     -14.1085      1.00000
    161     -14.1064      1.00000
    162     -14.1052      1.00000
    163     -14.1036      1.00000
    164     -14.1019      1.00000
    165     -14.0997      1.00000
    166     -14.0985      1.00000
    167     -14.0964      1.00000
    168     -14.0946      1.00000
    169     -14.0932      1.00000
    170     -14.0902      1.00000
    171     -14.0874      1.00000
    172     -14.0860      1.00000
    173     -14.0839      1.00000
    174     -14.0823      1.00000
    175     -14.0805      1.00000
    176     -14.0783      1.00000
    177     -14.0760      1.00000
    178     -14.0749      1.00000
    179     -14.0734      1.00000
    180     -14.0721      1.00000
    181     -14.0699      1.00000
    182     -14.0681      1.00000
    183     -14.0640      1.00000
    184     -14.0630      1.00000
    185     -14.0613      1.00000
    186     -14.0599      1.00000
    187     -14.0577      1.00000
    188     -14.0543      1.00000
    189     -14.0527      1.00000
    190     -14.0499      1.00000
    191     -14.0432      1.00000
    192     -14.0416      1.00000
    193     -14.0389      1.00000
    194     -14.0353      1.00000
    195     -14.0339      1.00000
    196     -14.0321      1.00000
    197     -14.0262      1.00000
    198     -14.0225      1.00000
    199     -14.0199      1.00000
    200     -14.0174      1.00000
    201     -14.0160      1.00000
    202     -14.0123      1.00000
    203     -14.0100      1.00000
    204     -14.0069      1.00000
    205     -14.0035      1.00000
    206     -14.0006      1.00000
    207     -13.9978      1.00000
    208     -13.9961      1.00000
    209     -13.9943      1.00000
    210     -13.9909      1.00000
    211     -13.9865      1.00000
    212     -13.9827      1.00000
    213     -13.9804      1.00000
    214     -13.9775      1.00000
    215     -13.9766      1.00000
    216     -13.9716      1.00000
    217     -13.9702      1.00000
    218     -13.9687      1.00000
    219     -13.9657      1.00000
    220     -13.9638      1.00000
    221     -13.9631      1.00000
    222     -13.9585      1.00000
    223     -13.9568      1.00000
    224     -13.9560      1.00000
    225     -13.9536      1.00000
    226     -13.9502      1.00000
    227     -13.9488      1.00000
    228     -13.9468      1.00000
    229     -13.9448      1.00000
    230     -13.9433      1.00000
    231     -13.9412      1.00000
    232     -13.9396      1.00000
    233     -13.9372      1.00000
    234     -13.9359      1.00000
    235     -13.9339      1.00000
    236     -13.9325      1.00000
    237     -13.9305      1.00000
    238     -13.9288      1.00000
    239     -13.9278      1.00000
    240     -13.9255      1.00000
    241     -13.9229      1.00000
    242     -13.9207      1.00000
    243     -13.9195      1.00000
    244     -13.9188      1.00000
    245     -13.9164      1.00000
    246     -13.9146      1.00000
    247     -13.9118      1.00000
    248     -13.9104      1.00000
    249     -13.9074      1.00000
    250     -13.9058      1.00000
    251     -13.9042      1.00000
    252     -13.9029      1.00000
    253     -13.9005      1.00000
    254     -13.8997      1.00000
    255     -13.8974      1.00000
    256     -13.8937      1.00000
    257     -13.8931      1.00000
    258     -13.8915      1.00000
    259     -13.8890      1.00000
    260     -13.8854      1.00000
    261     -13.8844      1.00000
    262     -13.8828      1.00000
    263     -13.8809      1.00000
    264     -13.8781      1.00000
    265     -13.8762      1.00000
    266     -13.8729      1.00000
    267     -13.8702      1.00000
    268     -13.8681      1.00000
    269     -13.8674      1.00000
    270     -13.8632      1.00000
    271     -13.8627      1.00000
    272     -13.8608      1.00000
    273     -13.8589      1.00000
    274     -13.8578      1.00000
    275     -13.8555      1.00000
    276     -13.8539      1.00000
    277     -13.8524      1.00000
    278     -13.8516      1.00000
    279     -13.8482      1.00000
    280     -13.8440      1.00000
    281     -13.8425      1.00000
    282     -13.8409      1.00000
    283     -13.8378      1.00000
    284     -13.8355      1.00000
    285     -13.8308      1.00000
    286     -13.8273      1.00000
    287     -13.8241      1.00000
    288     -13.8224      1.00000
    289     -13.8202      1.00000
    290     -13.8162      1.00000
    291     -13.8139      1.00000
    292     -13.8120      1.00000
    293     -13.8084      1.00000
    294     -13.8076      1.00000
    295     -13.8055      1.00000
    296     -13.8040      1.00000
    297     -13.8029      1.00000
    298     -13.8004      1.00000
    299     -13.7982      1.00000
    300     -13.7955      1.00000
    301     -13.7950      1.00000
    302     -13.7920      1.00000
    303     -13.7903      1.00000
    304     -13.7887      1.00000
    305     -13.7868      1.00000
    306     -13.7844      1.00000
    307     -13.7832      1.00000
    308     -13.7814      1.00000
    309     -13.7804      1.00000
    310     -13.7780      1.00000
    311     -13.7769      1.00000
    312     -13.7724      1.00000
    313     -13.7708      1.00000
    314     -13.7687      1.00000
    315     -13.7651      1.00000
    316     -13.7626      1.00000
    317     -13.7606      1.00000
    318     -13.7584      1.00000
    319     -13.7562      1.00000
    320     -13.7534      1.00000
    321     -13.7518      1.00000
    322     -13.7483      1.00000
    323     -13.7465      1.00000
    324     -13.7447      1.00000
    325     -13.7430      1.00000
[...]
      1.96428      3.03386      5.94938         0.009089      0.000292      0.005014
      3.88559      7.57705      7.37238        -0.004648     -0.001109     -0.005698
      3.88201      4.54260      1.57741        -0.001931     -0.004285      0.004560
      5.90448      3.03451      2.86304        -0.022216      0.000140      0.000543
      5.89959      3.03454      0.04502         0.006445     -0.000103     -0.000539
      4.00365      4.55137      4.18839         0.008430      0.001732      0.002082
      7.87224      4.55919     -1.31908         0.001455     -0.003403     -0.004365
      2.17930      3.03418      2.85168         0.025738     -0.001088      0.031168
      9.81561      3.03443      0.12268         0.002096     -0.000761     -0.000889
      0.04443      4.55196      4.28595         0.000113     -0.008636      0.001205
     11.84765      4.55156     -1.41083         0.008254     -0.002032      0.007052
      9.93324      3.03454      2.73455        -0.000097      0.000180      0.003848
      1.92847      3.03413      0.16976         0.001174      0.000066      0.015711
      7.97282      1.51494      7.07697         0.001752      0.004046      0.003357
      3.88650      1.51342      7.37681         0.001612      0.000614      0.001101
      7.86481      4.54910      4.46457        -0.005377     -0.002932     -0.013250
      7.97507      7.57572      7.07837         0.001093     -0.002225     -0.000363
      1.94082      9.10004      0.13066        -0.000974     -0.000075     -0.005493
      9.92162      9.10049      2.73964        -0.002671      0.000184     -0.004060
     11.82950     10.62653     -1.42380        -0.002536      0.006116     -0.002975
      0.03298     10.62729      4.29679        -0.001920      0.008791     -0.004843
      9.81538      9.10011      0.12594        -0.003884     -0.000665     -0.001064
      2.04538      9.10053      2.74941        -0.001425     -0.000686     -0.005960
      7.87690     10.62482     -1.32418         0.003937      0.001403     -0.001731
      3.98014     10.62763      4.19875        -0.007173      0.003728     -0.001909
      5.89921      9.10113      0.03150         0.002220     -0.001761     -0.001626
      5.95863      9.10097      2.84593        -0.004400     -0.000303      0.000151
      3.88319     10.62223      1.58109        -0.006054     -0.000289     -0.002581
      7.97476     10.62665      1.29081         0.003887      0.000142     -0.003765
      1.94302      9.10041      5.92051        -0.001716     -0.000016     -0.014847
      9.91964      9.10025      8.52941        -0.003493      0.001041      0.007510
     11.83007     10.62551      4.36019        -0.002381      0.007991     -0.004031
      0.02934     10.62146     10.08805        -0.003060      0.007377     -0.003801
      9.81435      9.09962      5.91319        -0.003602      0.001269     -0.004090
      2.04556      9.10021      8.53618        -0.001855      0.000095     -0.003594
      7.87539     10.62771      4.46431         0.001529      0.003185     -0.011819
      3.98275     10.62482      9.98646        -0.001229      0.001614      0.007217
      5.89856      9.10161      5.81412        -0.000966      0.000187     -0.005445
      5.96195      9.10153      8.63394         0.002186     -0.000999     -0.001765
      3.88534     10.62306      7.37254        -0.003444      0.001625     -0.007156
      7.97515     10.62520      7.07818         0.000599      0.003100     -0.000717
 -----------------------------------------------------------------------------------
    total drift:                                0.376695      0.004455      0.370606


--------------------------------------------------------------------------------------------------------



  FREE ENERGIE OF THE ION-ELECTRON SYSTEM (eV)
  ---------------------------------------------------
  free  energy   TOTEN  =     -1521.62001631 eV

  energy  without entropy=    -1521.62001631  energy(sigma->0) =    -1521.62001631
 
 d Force = 0.1937562E-04[ 0.940E-05, 0.294E-04]  d Energy = 0.8707518E-04-0.677E-04
 d Force = 0.2143448E-01[ 0.211E-01, 0.217E-01]  d Ewald  = 0.2143453E-01-0.526E-07


--------------------------------------------------------------------------------------------------------


    POTLOK:  cpu time    1.8929: real time    1.8931


--------------------------------------------------------------------------------------------------------




--------------------------------------------------------------------------------------------------------


  
 reached required accuracy - stopping structural energy minimisation
 writing wavefunctions
     LOOP+:  cpu time  892.8762: real time  896.6558
    4ORBIT:  cpu time    0.0000: real time    0.0000
 


 total charge     
 
# of ion       s       p       d       tot
------------------------------------------
    1        0.752   1.007  10.305  12.064
    2        0.751   1.005  10.303  12.060
    3        0.751   1.005  10.303  12.059
    4        0.654   0.823  10.269  11.745
    5        0.653   0.822  10.268  11.743
    6        0.752   1.009  10.306  12.068
    7        0.753   1.014  10.308  12.075
    8        0.653   0.824  10.270  11.747
    9        0.751   1.002  10.301  12.054
   10        0.749   0.995  10.297  12.041
   11        0.653   0.822  10.268  11.743
   12        0.654   0.826  10.272  11.752
   13        0.655   0.826  10.271  11.752
   14        0.754   1.003  10.300  12.058
   15        0.750   0.997  10.298  12.045
   16        0.653   0.821  10.268  11.742
   17        0.662   0.832  10.269  11.762
   18        0.751   0.990  10.295  12.036
   19        0.753   1.009  10.304  12.066
   20        0.654   0.823  10.269  11.746
   21        0.752   1.006  10.304  12.061
   22        0.655   0.830  10.275  11.760
   23        0.751   1.004  10.302  12.057
   24        0.655   0.830  10.274  11.759
   25        0.751   1.002  10.301  12.054
   26        0.751   1.005  10.303  12.059
   27        0.751   1.003  10.302  12.055
   28        0.653   0.821  10.268  11.742
   29        0.662   0.832  10.269  11.762
   30        0.751   0.990  10.295  12.036
   31        0.754   1.009  10.305  12.068
   32        0.655   0.830  10.275  11.759
   33        0.655   0.829  10.273  11.756
   34        0.752   1.007  10.304  12.064
   35        0.655   0.829  10.272  11.756
   36        0.652   0.822  10.269  11.743
   37        0.751   1.003  10.302  12.055
   38        0.751   1.003  10.302  12.057
   39        0.752   1.005  10.303  12.060
   40        0.654   0.827  10.272  11.754
   41        0.654   0.827  10.272  11.753
   42        0.655   0.830  10.274  11.759
   43        0.753   1.014  10.309  12.075
   44        0.752   1.010  10.306  12.068
   45        0.653   0.823  10.269  11.746
   46        0.654   0.827  10.272  11.754
   47        0.654   0.821  10.268  11.742
   48        0.750   1.000  10.299  12.050
   49        0.750   0.997  10.298  12.045
   50        0.653   0.822  10.268  11.744
   51        0.655   0.827  10.271  11.753
   52        0.751   1.004  10.302  12.057
   53        0.752   1.007  10.304  12.062
   54        0.654   0.819  10.265  11.738
   55        0.653   0.818  10.265  11.736
   56        0.751   1.002  10.301  12.053
   57        0.750   0.999  10.299  12.048
   58        0.653   0.822  10.269  11.744
   59        0.654   0.823  10.269  11.746
   60        0.751   1.006  10.303  12.060
   61        0.751   1.006  10.304  12.060
   62        0.653   0.819  10.266  11.738
   63        0.652   0.816  10.264  11.733
   64        0.354   6.491   5.482  12.327
   65        1.584   3.571   0.000   5.155
   66        1.584   3.573   0.000   5.157
   67        1.577   3.609   0.000   5.186
   68        1.580   3.589   0.000   5.169
   69        1.578   3.614   0.000   5.192
   70        1.577   3.611   0.000   5.188
   71        1.578   3.614   0.000   5.191
   72        1.578   3.613   0.000   5.191
   73        1.580   3.582   0.000   5.162
   74        1.580   3.581   0.000   5.161
   75        1.584   3.576   0.000   5.160
   76        1.584   3.572   0.000   5.156
   77        1.578   3.613   0.000   5.191
   78        1.577   3.611   0.000   5.188
   79        1.580   3.582   0.000   5.161
   80        1.580   3.580   0.000   5.160
   81        1.584   3.570   0.000   5.154
   82        1.584   3.572   0.000   5.156
   83        1.578   3.615   0.000   5.193
   84        1.578   3.612   0.000   5.189
   85        1.580   3.583   0.000   5.162
   86        1.580   3.582   0.000   5.162
   87        1.584   3.571   0.000   5.155
   88        1.584   3.571   0.000   5.155
   89        1.578   3.611   0.000   5.188
   90        1.580   3.582   0.000   5.162
   91        1.580   3.581   0.000   5.161
   92        1.584   3.567   0.000   5.151
   93        1.583   3.568   0.000   5.152
   94        1.584   3.576   0.000   5.160
   95        1.584   3.572   0.000   5.156
   96        1.578   3.612   0.000   5.189
   97        1.577   3.612   0.000   5.189
   98        1.580   3.582   0.000   5.161
   99        1.580   3.580   0.000   5.160
  100        1.584   3.567   0.000   5.151
  101        1.586   3.555   0.000   5.141
  102        1.580   3.580   0.000   5.159
  103        1.578   3.615   0.000   5.193
  104        1.587   3.547   0.000   5.134
  105        1.580   3.582   0.000   5.162
  106        1.584   3.571   0.000   5.155
  107        1.584   3.571   0.000   5.155
  108        1.578   3.608   0.000   5.186
  109        1.577   3.606   0.000   5.183
  110        1.580   3.582   0.000   5.162
  111        1.580   3.589   0.000   5.169
  112        1.578   3.614   0.000   5.192
  113        1.580   3.581   0.000   5.161
  114        1.578   3.613   0.000   5.191
  115        1.578   3.614   0.000   5.191
  116        1.583   3.569   0.000   5.153
  117        1.578   3.612   0.000   5.189
  118        1.577   3.612   0.000   5.189
  119        1.579   3.579   0.000   5.158
  120        1.581   3.584   0.000   5.165
  121        1.584   3.571   0.000   5.155
  122        1.586   3.553   0.000   5.139
  123        1.583   3.563   0.000   5.146
  124        1.577   3.611   0.000   5.189
  125        1.587   3.550   0.000   5.137
  126        1.580   3.582   0.000   5.162
  127        1.597   3.494   0.000   5.091
  128        1.583   3.568   0.000   5.151
  129        1.578   3.608   0.000   5.186
  130        1.577   3.607   0.000   5.184
  131        1.579   3.580   0.000   5.159
  132        1.578   3.577   0.000   5.155
  133        1.584   3.571   0.000   5.155
  134        1.584   3.573   0.000   5.157
  135        1.580   3.580   0.000   5.160
  136        1.584   3.571   0.000   5.154
  137        1.579   3.584   0.000   5.163
  138        1.579   3.579   0.000   5.159
  139        1.577   3.611   0.000   5.189
  140        1.578   3.611   0.000   5.189
  141        1.583   3.568   0.000   5.151
  142        1.583   3.569   0.000   5.152
  143        1.580   3.582   0.000   5.162
  144        1.580   3.582   0.000   5.162
  145        1.577   3.610   0.000   5.187
  146        1.577   3.610   0.000   5.187
  147        1.584   3.573   0.000   5.156
  148        1.584   3.570   0.000   5.154
  149        1.579   3.580   0.000   5.159
  150        1.579   3.580   0.000   5.159
  151        1.577   3.611   0.000   5.189
  152        1.578   3.613   0.000   5.191
  153        1.583   3.568   0.000   5.151
  154        1.583   3.568   0.000   5.152
  155        1.580   3.581   0.000   5.161
  156        1.580   3.582   0.000   5.162
  157        1.577   3.609   0.000   5.187
  158        1.577   3.609   0.000   5.187
  159        1.584   3.571   0.000   5.155
  160        1.584   3.571   0.000   5.154
--------------------------------------------------
tot        196.433 408.382 653.5101258.325
 


 magnetization (x)
 
# of ion       s       p       d       tot
------------------------------------------
    1        0.000   0.000  -0.000  -0.000
    2       -0.000  -0.000  -0.000  -0.000
    3        0.000   0.000  -0.000   0.000
    4        0.000   0.000   0.000   0.000
    5        0.000  -0.000  -0.000  -0.000
    6        0.000   0.000  -0.000   0.000
    7        0.000  -0.000  -0.000  -0.000
    8        0.000   0.000   0.000   0.000
    9        0.000  -0.000  -0.000  -0.000
   10        0.000  -0.000  -0.000   0.000
   11        0.000   0.000  -0.000   0.000
   12        0.000   0.000  -0.000   0.000
   13       -0.000   0.000   0.000   0.000
   14        0.002   0.004  -0.001   0.005
   15        0.000   0.000   0.000   0.000
   16        0.000   0.000  -0.000   0.000
   17        0.001   0.002  -0.000   0.003
   18        0.001   0.001   0.000   0.003
   19        0.001   0.001   0.001   0.003
   20       -0.000   0.000  -0.000  -0.000
   21       -0.000  -0.000  -0.000  -0.000
   22        0.001   0.002   0.000   0.004
   23        0.000   0.000   0.000   0.000
   24        0.000   0.000   0.000   0.000
   25        0.002   0.003   0.002   0.006
   26        0.000  -0.000  -0.000   0.000
   27        0.000  -0.000  -0.000  -0.000
   28        0.000   0.000  -0.000   0.000
   29        0.001   0.002  -0.000   0.003
   30        0.001   0.001   0.000   0.003
   31        0.001   0.001   0.001   0.003
   32        0.001   0.002   0.000   0.004
   33        0.000   0.000  -0.000   0.000
   34        0.000   0.000  -0.000  -0.000
   35        0.000   0.000  -0.000   0.000
   36       -0.000  -0.000  -0.000  -0.000
   37        0.000  -0.000  -0.000  -0.000
   38        0.001   0.003   0.002   0.006
   39        0.000  -0.000  -0.000  -0.000
   40        0.000   0.000   0.000   0.000
   41        0.000   0.000  -0.000   0.000
   42        0.000   0.000   0.000   0.000
   43        0.000  -0.000  -0.000  -0.000
   44        0.000   0.000  -0.000   0.000
   45        0.000   0.000   0.000   0.000
   46        0.000   0.000   0.000   0.000
   47       -0.000   0.000   0.000   0.000
   48        0.000  -0.000  -0.000   0.000
   49        0.000   0.000  -0.000   0.000
   50        0.000   0.000  -0.000   0.000
   51       -0.000   0.000   0.000   0.000
   52        0.000   0.000   0.000   0.000
   53       -0.000  -0.000  -0.000  -0.000
   54       -0.000   0.000   0.000   0.000
   55        0.000   0.000   0.000   0.000
   56        0.000   0.000  -0.000   0.000
   57        0.000   0.000  -0.000   0.000
   58        0.000  -0.000  -0.000  -0.000
   59        0.000   0.000   0.000   0.000
   60        0.000   0.000  -0.000   0.000
   61       -0.000  -0.000  -0.000  -0.000
   62       -0.000  -0.000  -0.000  -0.000
   63        0.000  -0.000  -0.000   0.000
   64        0.019   0.025   3.700   3.744
   65        0.000   0.000   0.000   0.000
   66        0.000   0.001   0.000   0.001
   67       -0.000  -0.000   0.000  -0.000
   68       -0.000  -0.001   0.000  -0.001
   69        0.000   0.000   0.000   0.000
   70        0.000  -0.000   0.000   0.000
   71        0.000  -0.000   0.000  -0.000
   72        0.000   0.001   0.000   0.001
   73       -0.000   0.000   0.000   0.000
   74        0.000   0.000   0.000   0.000
   75        0.000  -0.000   0.000  -0.000
   76       -0.000  -0.000   0.000  -0.000
   77       -0.000  -0.000   0.000  -0.000
   78        0.000  -0.000   0.000  -0.000
   79       -0.000  -0.000   0.000  -0.000
   80        0.000  -0.000   0.000  -0.000
   81        0.000   0.000   0.000   0.000
   82        0.000   0.001   0.000   0.001
   83        0.000   0.002   0.000   0.002
   84       -0.000  -0.000   0.000  -0.000
   85        0.000   0.001   0.000   0.001
   86       -0.000  -0.000   0.000  -0.000
   87        0.000   0.003   0.000   0.003
   88       -0.000  -0.000   0.000  -0.001
   89        0.000   0.000   0.000   0.000
   90       -0.000  -0.000   0.000  -0.000
   91        0.000   0.001   0.000   0.001
   92       -0.000  -0.003   0.000  -0.003
   93        0.000  -0.000   0.000  -0.000
   94        0.000  -0.000   0.000   0.000
   95       -0.000  -0.000   0.000  -0.000
   96        0.000  -0.000   0.000  -0.000
   97        0.000  -0.000   0.000  -0.000
   98       -0.000  -0.000   0.000  -0.000
   99        0.000  -0.000   0.000  -0.000
  100        0.000  -0.003   0.000  -0.003
  101        0.005   0.036   0.000   0.041
  102        0.000  -0.000   0.000  -0.000
  103        0.000   0.002   0.000   0.002
  104        0.007   0.079   0.000   0.086
  105        0.000  -0.000   0.000  -0.000
  106        0.000   0.003   0.000   0.003
  107       -0.000  -0.000   0.000  -0.000
  108        0.000  -0.003   0.000  -0.003
  109       -0.000  -0.003   0.000  -0.003
  110       -0.000  -0.000   0.000  -0.000
  111        0.000  -0.000   0.000  -0.000
  112        0.000   0.000   0.000   0.000
  113        0.000   0.001   0.000   0.001
  114        0.000   0.000   0.000   0.000
  115       -0.000  -0.000   0.000  -0.000
  116        0.000  -0.000   0.000   0.000
  117        0.000  -0.000   0.000  -0.000
  118        0.000  -0.000   0.000  -0.000
  119        0.000  -0.000   0.000  -0.000
  120        0.000   0.001   0.000   0.001
  121        0.000   0.000   0.000   0.000
  122        0.005   0.030   0.000   0.035
  123        0.002   0.003   0.000   0.005
  124       -0.000   0.000   0.000   0.000
  125        0.007   0.088   0.000   0.095
  126        0.000  -0.000   0.000  -0.000
  127       -0.001  -0.139   0.000  -0.140
  128        0.000   0.000   0.000   0.000
  129        0.000  -0.003   0.000  -0.003
  130       -0.000  -0.003   0.000  -0.003
  131        0.000   0.000   0.000   0.000
  132        0.000  -0.001   0.000  -0.001
  133        0.000   0.000   0.000   0.000
  134        0.000   0.001   0.000   0.001
  135        0.000  -0.000   0.000  -0.000
  136       -0.000  -0.000   0.000  -0.000
  137       -0.000  -0.000   0.000  -0.000
  138        0.000   0.000   0.000   0.000
  139        0.000  -0.000   0.000  -0.000
  140        0.000   0.000   0.000   0.000
  141        0.000   0.000   0.000   0.000
  142       -0.000  -0.000   0.000  -0.000
  143       -0.000  -0.000   0.000  -0.000
  144        0.000   0.001   0.000   0.001
  145        0.000   0.000   0.000   0.000
  146       -0.000  -0.000   0.000  -0.000
  147        0.000   0.001   0.000   0.001
  148        0.000   0.000   0.000   0.000
  149        0.000  -0.000   0.000  -0.000
  150       -0.000  -0.000   0.000  -0.000
  151        0.000  -0.000   0.000  -0.000
  152       -0.000  -0.000   0.000  -0.000
  153        0.000  -0.000   0.000  -0.000
  154        0.000   0.000   0.000   0.000
  155        0.000   0.000   0.000   0.000
  156       -0.000  -0.000   0.000  -0.000
  157        0.000  -0.000   0.000  -0.000
  158        0.000  -0.000   0.000  -0.000
  159        0.000   0.000   0.000   0.000
  160       -0.000  -0.000   0.000  -0.000
--------------------------------------------------
tot          0.061   0.140   3.704   3.905
 

 total amount of memory used by VASP MPI-rank0   108353. kBytes
=======================================================================

   base      :      30000. kBytes
   nonlr-proj:      43729. kBytes
   fftplans  :       1403. kBytes
   grid      :      18679. kBytes
   one-center:       4976. kBytes
   HF        :        194. kBytes
   wavefun   :       9372. kBytes
 
  
  
 General timing and accounting informations for this job:
 ========================================================
  
                  Total CPU time used (sec):     3687.837
                            User time (sec):     3559.448
                          System time (sec):      128.389
                         Elapsed time (sec):     3702.837
  
                   Maximum memory used (kb):      599260.
                   Average memory used (kb):           0.
  
                          Minor page faults:     19920769
                          Major page faults:           45
                 Voluntary context switches:        45819
