 vasp.5.4.1 05Feb16 (build May 04 2017 01:30:51) complex                        
  
 executed on      LLNL_Quartz_ifc date 2017.11.18  16:03:30
 running on  288 total cores
 distrk:  each k-point on  288 cores,    1 groups
 distr:  one band on NCORES_PER_BAND=   1 cores,  288 groups


--------------------------------------------------------------------------------------------------------


 INCAR:
 POTCAR:   PAW_PBE Ga_d 06Sep2000                 
 POTCAR:   PAW_PBE O 08Apr2002                    

 ----------------------------------------------------------------------------- 
|                                                                             |
|           W    W    AA    RRRRR   N    N  II  N    N   GGGG   !!!           |
|           W    W   A  A   R    R  NN   N  II  NN   N  G    G  !!!           |
|           W    W  A    A  R    R  N N  N  II  N N  N  G       !!!           |
|           W WW W  AAAAAA  RRRRR   N  N N  II  N  N N  G  GGG   !            |
|           WW  WW  A    A  R   R   N   NN  II  N   NN  G    G                |
|           W    W  A    A  R    R  N    N  II  N    N   GGGG   !!!           |
|                                                                             |
|      For optimal performance we recommend to set                            |
|        NCORE= 4 - approx SQRT( number of cores)                             |
|      NCORE specifies how many cores store one orbital (NPAR=cpu/NCORE).     |
|      This setting can  greatly improve the performance of VASP for DFT.     |
|      The default, NPAR=number of cores might be grossly inefficient         |
|      on modern multi-core architectures or massively parallel machines.     |
|      Do your own testing !!!!                                               |
|      Unfortunately you need to use the default for GW and RPA calculations. |
|      (for HF NCORE is supported but not extensively tested yet)             |
|                                                                             |
 ----------------------------------------------------------------------------- 

 POTCAR:   PAW_PBE Ga_d 06Sep2000                 
   VRHFIN =Ga: s2p1                                                             
   LEXCH  = PE                                                                  
   EATOM  =  2149.0616 eV,  157.9516 Ry                                         
                                                                                
   TITEL  = PAW_PBE Ga_d 06Sep2000                                              
   LULTRA =        F    use ultrasoft PP ?                                      
   IUNSCR =        1    unscreen: 0-lin 1-nonlin 2-no                           
   RPACOR =    2.000    partial core radius                                     
   POMASS =   69.723; ZVAL   =   13.000    mass and valenz                      
   RCORE  =    2.300    outmost cutoff radius                                   
   RWIGS  =    2.300; RWIGS  =    1.217    wigner-seitz radius (au A)           
   ENMAX  =  282.697; ENMIN  =  212.022 eV                                      
   ICORE  =        3    local potential                                         
   LCOR   =        T    correct aug charges                                     
   LPAW   =        T    paw PP                                                  
   EAUG   =  490.690                                                            
   DEXC   =    -.001                                                            
   RMAX   =    2.742    core radius for proj-oper                               
   RAUG   =    1.300    factor for augmentation sphere                          
   RDEP   =    2.413    radius for radial grids                                 
   QCUT   =   -4.558; QGAM   =    9.117    optimization parameters              
                                                                                
   Description                                                                  
     l     E      TYP  RCUT    TYP  RCUT                                        
     2   .000     23  2.300                                                     
     2  -.400     23  2.300                                                     
     0   .000     23  2.300                                                     
     0   .000     23  2.300                                                     
     1   .000     23  2.300                                                     
     1   .000     23  2.300                                                     
     3  -.100      7  2.300                                                     
  local pseudopotential read in
  partial core-charges read in
  atomic valenz-charges read in
  non local Contribution for L=           2  read in
    real space projection operators read in
  non local Contribution for L=           2  read in
    real space projection operators read in
  non local Contribution for L=           0  read in
    real space projection operators read in
  non local Contribution for L=           0  read in
    real space projection operators read in
  non local Contribution for L=           1  read in
    real space projection operators read in
  non local Contribution for L=           1  read in
    real space projection operators read in
    PAW grid and wavefunctions read in
 
   number of l-projection  operators is LMAX  =           6
   number of lm-projection operators is LMMAX =          18
 
 POTCAR:   PAW_PBE O 08Apr2002                    
   VRHFIN =O: s2p4                                                              
   LEXCH  = PE                                                                  
   EATOM  =   432.3788 eV,   31.7789 Ry                                         
                                                                                
   TITEL  = PAW_PBE O 08Apr2002                                                 
   LULTRA =        F    use ultrasoft PP ?                                      
   IUNSCR =        0    unscreen: 0-lin 1-nonlin 2-no                           
   RPACOR =     .000    partial core radius                                     
   POMASS =   16.000; ZVAL   =    6.000    mass and valenz                      
   RCORE  =    1.520    outmost cutoff radius                                   
   RWIGS  =    1.550; RWIGS  =     .820    wigner-seitz radius (au A)           
   ENMAX  =  400.000; ENMIN  =  300.000 eV                                      
   ICORE  =        2    local potential                                         
   LCOR   =        T    correct aug charges                                     
   LPAW   =        T    paw PP                                                  
   EAUG   =  605.392                                                            
   DEXC   =     .000                                                            
   RMAX   =    2.264    core radius for proj-oper                               
   RAUG   =    1.300    factor for augmentation sphere                          
   RDEP   =    1.550    radius for radial grids                                 
   QCUT   =   -5.520; QGAM   =   11.041    optimization parameters              
                                                                                
   Description                                                                  
     l     E      TYP  RCUT    TYP  RCUT                                        
     0   .000     23  1.200                                                     
     0  -.700     23  1.200                                                     
     1   .000     23  1.520                                                     
     1   .600     23  1.520                                                     
     2   .000      7  1.500                                                     
  local pseudopotential read in
  atomic valenz-charges read in
  non local Contribution for L=           0  read in
    real space projection operators read in
  non local Contribution for L=           0  read in
    real space projection operators read in
  non local Contribution for L=           1  read in
    real space projection operators read in
  non local Contribution for L=           1  read in
    real space projection operators read in
    PAW grid and wavefunctions read in
 
   number of l-projection  operators is LMAX  =           4
   number of lm-projection operators is LMMAX =           8
 
 Optimization of the real space projectors (new method)

 maximal supplied QI-value         = 16.25
 optimisation between [QCUT,QGAM] = [ 10.24, 20.48] = [ 29.35,117.42] Ry 
 Optimized for a Real-space Cutoff    1.38 Angstroem

   l    n(q)    QCUT    max X(q) W(low)/X(q) W(high)/X(q)  e(spline) 
   2      7    10.239     6.328    0.33E-04    0.68E-04    0.30E-07
   2      7    10.239     9.625    0.20E-03    0.23E-03    0.80E-07
   0      8    10.239     9.711    0.17E-04    0.17E-04    0.13E-07
   0      8    10.239    32.764    0.56E-04    0.14E-03    0.62E-07
   1      8    10.239     7.413    0.78E-04    0.28E-04    0.38E-07
   1      8    10.239    31.472    0.43E-03    0.30E-03    0.73E-07
 Optimization of the real space projectors (new method)

 maximal supplied QI-value         = 24.76
 optimisation between [QCUT,QGAM] = [ 10.15, 20.30] = [ 28.85,115.39] Ry 
 Optimized for a Real-space Cutoff    1.30 Angstroem

   l    n(q)    QCUT    max X(q) W(low)/X(q) W(high)/X(q)  e(spline) 
   0      8    10.150     4.192    0.55E-04    0.58E-04    0.78E-07
   0      8    10.150     8.473    0.46E-03    0.68E-03    0.23E-06
   1      7    10.150     2.474    0.11E-03    0.93E-04    0.33E-07
   1      7    10.150     3.912    0.46E-03    0.50E-03    0.15E-06
 PAW_PBE Ga_d 06Sep2000                 :
 energy of atom  1       EATOM=-2149.0616
 kinetic energy error for atom=    0.0101 (will be added to EATOM!!)
 PAW_PBE O 08Apr2002                    :
 energy of atom  2       EATOM= -432.3788
 kinetic energy error for atom=    0.1156 (will be added to EATOM!!)
 
 
 POSCAR: Ga  O                                   
  positions in direct lattice
  velocities in cartesian coordinates
 exchange correlation table for  LEXCH =        8
   RHO(1)=    0.500       N(1)  =     2000
   RHO(2)=  100.500       N(2)  =     4000
 


--------------------------------------------------------------------------------------------------------


 ion  position               nearest neighbor table
   1  0.500  0.376  0.250-  68 1.97  82 1.97 123 1.97 122 1.97  91 2.03 121 2.03  22 2.92  35 2.92

   2  0.091  0.000  0.397-  98 1.82 107 1.82 139 1.83 105 1.85
   3  0.410  0.624  0.605-  71 1.82  84 1.83 156 1.84 120 1.86
   4  0.590  0.624  0.895-  70 1.82  85 1.83 157 1.84 135 1.86
   5  0.160  0.624  0.656-  79 1.93  77 1.94 148 1.95 120 2.00  74 2.01 153 2.10
   6  0.840  0.624  0.844-  78 1.93  76 1.94 149 1.95 135 2.00  75 2.01 152 2.10
   7  0.909  0.499  0.605-  89 1.82 117 1.83  77 1.84  75 1.85
   8  0.091  0.499  0.895-  67 1.82 116 1.83  76 1.84  74 1.85
   9  0.838  0.375  0.846-  78 1.94 118 1.94  64 1.96 116 1.96  75 2.09 115 2.10
  10  0.910  0.250  0.605- 130 1.83 117 1.83  96 1.84 115 1.85
  11  0.090  0.250  0.895- 131 1.83 116 1.83  95 1.84  92 1.85
  12  0.840  0.625  0.344-  89 1.93  88 1.93 137 1.95  80 1.97  87 2.06 140 2.09
  13  0.659  0.002  0.655- 101 1.93 113 1.93 154 1.94  94 2.02 132 2.04 159 2.10
  14  0.160  0.625  0.156-  67 1.93  69 1.93 136 1.95  81 1.97  86 2.06 141 2.09
  15  0.085  0.251  0.394- 119 1.83 128 1.83 107 1.84 126 1.86
  16  0.915  0.251  0.106- 118 1.83 129 1.83 108 1.84 127 1.86
  17  0.830  0.375  0.347-  89 1.91 130 1.92  91 1.95 128 2.02  87 2.14 127 2.15
  18  0.170  0.375  0.153-  67 1.91 131 1.92 121 1.95 129 2.02  86 2.14 126 2.15
  19  0.338  0.252  0.349- 122 1.90 124 1.94 103 1.94 126 2.00 121 2.02 100 2.16
  20  0.662  0.252  0.151- 123 1.90 125 1.94 104 1.94 127 2.00  91 2.02  99 2.16
  21  0.413  0.614  0.106-  68 1.80  72 1.84  81 1.87 144 1.88
  22  0.338  0.499  0.348-  82 1.89 124 1.93  84 1.94  86 2.00 121 2.01  81 2.15   1 2.92
  23  0.587  0.614  0.394-  82 1.80  73 1.84  80 1.87 145 1.88
  24  0.341  0.002  0.845- 112 1.93 114 1.93 155 1.94  93 2.02 133 2.04 158 2.10
  25  0.410  0.125  0.605-  83 1.82 103 1.83 113 1.83 133 1.85
  26  0.590  0.125  0.895-  66 1.82 104 1.83 114 1.83 132 1.85
  27  0.909  0.000  0.103-  97 1.82 108 1.82 138 1.83 106 1.85
  28  0.839  0.124  0.343- 130 1.92 107 1.94 109 1.94  99 1.98 127 2.06 106 2.08
  29  0.161  0.124  0.157- 131 1.92 108 1.94 110 1.94 100 1.98 126 2.06 105 2.08
  30  0.586  0.136  0.394- 122 1.81 101 1.84  99 1.87 102 1.89
  31  0.414  0.136  0.106- 123 1.81 112 1.84 100 1.87 111 1.89
  32  0.343  0.001  0.343- 102 1.92 103 1.94 143 1.95 105 2.03 100 2.04 146 2.07
  33  0.657  0.001  0.157- 111 1.92 104 1.94 142 1.95 106 2.03  99 2.04 147 2.07
  34  0.086  0.499  0.394- 128 1.82  79 1.83  88 1.83  86 1.86
  35  0.662  0.499  0.152-  68 1.89 125 1.93  85 1.94  87 2.00  91 2.01  80 2.15   1 2.92
  36  0.660  0.255  0.648- 134 1.81 101 1.94  83 1.95 115 2.05  64 2.16 132 2.20  41 2.92
  37  0.914  0.499  0.106- 129 1.82  78 1.83  69 1.83  87 1.86
  38  0.414  0.375  0.603- 124 1.81  71 1.83  83 1.83  65 1.85
  39  0.586  0.375  0.897- 125 1.81  70 1.83  66 1.83  64 1.85
  40  0.162  0.375  0.654-  79 1.94 119 1.94  65 1.96 117 1.96  74 2.09  92 2.10
  41  0.660  0.495  0.650- 134 1.81  73 1.94  71 1.94  75 2.05  64 2.14 135 2.17  36 2.92
  42  0.340  0.495  0.850-  90 1.81  72 1.94  70 1.94  74 2.05  65 2.14 120 2.17  47 2.92
  43  0.090  1.000  0.897- 110 1.82  95 1.82 151 1.83  93 1.86
  44  0.910  1.000  0.603- 109 1.82  96 1.82 150 1.83  94 1.86
  45  0.840  0.126  0.843- 118 1.93  95 1.94  97 1.95 132 2.00 115 2.01  94 2.09
  46  0.160  0.126  0.657- 119 1.93  96 1.94  98 1.95 133 2.00  92 2.01  93 2.09
  47  0.340  0.255  0.852-  90 1.81 112 1.94  66 1.95  92 2.05  65 2.16 133 2.20  42 2.92
  48  0.089  0.750  0.396- 148 1.83  88 1.83 139 1.83 141 1.86
  49  0.911  0.750  0.104- 149 1.83  69 1.83 138 1.83 140 1.86
  50  0.840  0.875  0.343- 109 1.93 137 1.93 139 1.94 147 2.01 106 2.05 140 2.06
  51  0.160  0.875  0.157- 110 1.93 136 1.93 138 1.94 146 2.01 105 2.05 141 2.06
  52  0.588  0.875  0.396- 154 1.83 102 1.84 145 1.84 147 1.86
  53  0.412  0.875  0.104- 155 1.83 111 1.84 144 1.84 146 1.86
  54  0.343  0.749  0.343- 145 1.92  84 1.94 143 1.96 141 2.03  81 2.05 146 2.08
  55  0.657  0.749  0.157- 144 1.92  85 1.94 142 1.96 140 2.03  80 2.05 147 2.08
  56  0.089  0.750  0.897- 136 1.82  76 1.83 151 1.83 153 1.86
  57  0.911  0.750  0.603- 137 1.82  77 1.83 150 1.83 152 1.86
  58  0.840  0.875  0.843- 151 1.94  97 1.94 149 1.94 159 2.00  94 2.06 152 2.07
  59  0.160  0.875  0.657- 150 1.94  98 1.94 148 1.94 158 2.00  93 2.06 153 2.07
  60  0.590  0.875  0.896- 142 1.83 114 1.83 157 1.83 159 1.86
  61  0.410  0.875  0.604- 143 1.83 113 1.83 156 1.83 158 1.86
  62  0.341  0.748  0.846-  72 1.93 157 1.93 155 1.94 153 2.02 120 2.06 158 2.11
  63  0.659  0.748  0.654-  73 1.93 156 1.93 154 1.94 152 2.02 135 2.06 159 2.11
  64  0.674  0.375  0.788-  39 1.85   9 1.96  41 2.14  36 2.16
  65  0.326  0.375  0.712-  38 1.85  40 1.96  42 2.14  47 2.16
  66  0.502  0.248  0.872-  26 1.82  39 1.83  47 1.95
  67  0.163  0.501  0.053-   8 1.82  18 1.91  14 1.93
  68  0.504  0.496  0.137-  21 1.80  35 1.89   1 1.97
  69  0.998  0.626  0.128-  49 1.83  37 1.83  14 1.93
  70  0.502  0.501  0.872-   4 1.82  39 1.83  42 1.94
  71  0.498  0.501  0.628-   3 1.82  38 1.83  41 1.94
  72  0.337  0.624  0.949-  21 1.84  62 1.93  42 1.94
  73  0.663  0.624  0.551-  23 1.84  63 1.93  41 1.94
  74  0.169  0.503  0.777-   8 1.85   5 2.01  42 2.05  40 2.09
  75  0.831  0.503  0.723-   7 1.85   6 2.01  41 2.05   9 2.09
  76  0.004  0.625  0.873-  56 1.83   8 1.84   6 1.94
  77  0.996  0.625  0.627-  57 1.83   7 1.84   5 1.94
  78  0.839  0.501  0.949-  37 1.83   6 1.93   9 1.94
  79  0.161  0.501  0.551-  34 1.83   5 1.93  40 1.94
  80  0.675  0.627  0.282-  23 1.87  12 1.97  55 2.05  35 2.15
  81  0.325  0.627  0.218-  21 1.87  14 1.97  54 2.05  22 2.15
  82  0.496  0.496  0.363-  23 1.80  22 1.89   1 1.97
  83  0.498  0.248  0.628-  25 1.82  38 1.83  36 1.95
  84  0.335  0.626  0.449-   3 1.83  22 1.94  54 1.94
  85  0.665  0.626  0.051-   4 1.83  35 1.94  55 1.94
  86  0.171  0.502  0.281-  34 1.86  22 2.00  14 2.06  18 2.14
  87  0.829  0.502  0.219-  37 1.86  35 2.00  12 2.06  17 2.14
  88  0.002  0.626  0.372-  48 1.83  34 1.83  12 1.93
  89  0.837  0.501  0.447-   7 1.82  17 1.91  12 1.93
  90  0.324  0.376  0.939-  42 1.81  47 1.81
  91  0.669  0.376  0.270-  17 1.95  35 2.01  20 2.02   1 2.03
  92  0.169  0.246  0.778-  11 1.85  46 2.01  47 2.05  40 2.10
  93  0.172  0.999  0.782-  43 1.86  24 2.02  59 2.06  46 2.09
  94  0.828  0.999  0.718-  44 1.86  13 2.02  58 2.06  45 2.09
  95  0.003  0.124  0.873-  43 1.82  11 1.84  45 1.94
  96  0.997  0.124  0.627-  44 1.82  10 1.84  46 1.94
  97  0.836  1.000  0.947-  27 1.82  58 1.94  45 1.95
  98  0.164  1.000  0.553-   2 1.82  59 1.94  46 1.95
  99  0.674  0.123  0.282-  30 1.87  28 1.98  33 2.04  20 2.16
 100  0.326  0.123  0.218-  31 1.87  29 1.98  32 2.04  19 2.16
 101  0.663  0.125  0.551-  30 1.84  13 1.93  36 1.94
 102  0.505  0.002  0.373-  52 1.84  30 1.89  32 1.92
 103  0.335  0.123  0.448-  25 1.83  32 1.94  19 1.94
 104  0.665  0.123  0.052-  26 1.83  33 1.94  20 1.94
 105  0.173  0.999  0.281-   2 1.85  32 2.03  51 2.05  29 2.08
 106  0.827  0.999  0.219-  27 1.85  33 2.03  50 2.05  28 2.08
 107  0.002  0.123  0.372-   2 1.82  15 1.84  28 1.94
 108  0.998  0.123  0.128-  27 1.82  16 1.84  29 1.94
 109  0.837  0.999  0.447-  44 1.82  50 1.93  28 1.94
 110  0.163  0.999  0.053-  43 1.82  51 1.93  29 1.94
 111  0.495  0.002  0.127-  53 1.84  31 1.89  33 1.92
 112  0.337  0.125  0.949-  31 1.84  24 1.93  47 1.94
 113  0.497  1.000  0.628-  61 1.83  25 1.83  13 1.93
 114  0.503  1.000  0.872-  60 1.83  26 1.83  24 1.93
 115  0.831  0.246  0.722-  10 1.85  45 2.01  36 2.05   9 2.10
 116  0.003  0.375  0.872-   8 1.83  11 1.83   9 1.96
 117  0.997  0.375  0.628-   7 1.83  10 1.83  40 1.96
 118  0.839  0.249  0.949-  16 1.83  45 1.93   9 1.94
 119  0.161  0.249  0.551-  15 1.83  46 1.93  40 1.94
 120  0.327  0.626  0.720-   3 1.86   5 2.00  62 2.06  42 2.17
 121  0.331  0.376  0.230-  18 1.95  22 2.01  19 2.02   1 2.03
 122  0.496  0.256  0.364-  30 1.81  19 1.90   1 1.97
 123  0.504  0.256  0.136-  31 1.81  20 1.90   1 1.97
 124  0.329  0.376  0.452-  38 1.81  22 1.93  19 1.94
 125  0.671  0.376  0.048-  39 1.81  35 1.93  20 1.94
 126  0.171  0.247  0.281-  15 1.86  19 2.00  29 2.06  18 2.15
 127  0.829  0.247  0.219-  16 1.86  20 2.00  28 2.06  17 2.15
 128  0.999  0.376  0.371-  34 1.82  15 1.83  17 2.02
 129  0.001  0.376  0.129-  37 1.82  16 1.83  18 2.02
 130  0.838  0.248  0.447-  10 1.83  17 1.92  28 1.92
 131  0.162  0.248  0.053-  11 1.83  18 1.92  29 1.92
 132  0.673  0.123  0.780-  26 1.85  45 2.00  13 2.04  36 2.20
 133  0.327  0.123  0.720-  25 1.85  46 2.00  24 2.04  47 2.20
 134  0.676  0.376  0.561-  41 1.81  36 1.81
 135  0.673  0.626  0.780-   4 1.86   6 2.00  63 2.06  41 2.17
 136  0.163  0.752  0.053-  56 1.82  51 1.93  14 1.95
 137  0.837  0.752  0.447-  57 1.82  50 1.93  12 1.95
 138  0.997  0.876  0.128-  27 1.83  49 1.83  51 1.94
 139  0.003  0.876  0.372-   2 1.83  48 1.83  50 1.94
 140  0.827  0.752  0.219-  49 1.86  55 2.03  50 2.06  12 2.09
 141  0.173  0.752  0.281-  48 1.86  54 2.03  51 2.06  14 2.09
 142  0.663  0.876  0.054-  60 1.83  33 1.95  55 1.96
 143  0.337  0.876  0.446-  61 1.83  32 1.95  54 1.96
 144  0.495  0.747  0.127-  53 1.84  21 1.88  55 1.92
 145  0.505  0.747  0.373-  52 1.84  23 1.88  54 1.92
 146  0.329  0.875  0.219-  53 1.86  51 2.01  32 2.07  54 2.08
 147  0.671  0.875  0.281-  52 1.86  50 2.01  33 2.07  55 2.08
 148  0.163  0.750  0.553-  48 1.83  59 1.94   5 1.95
 149  0.837  0.750  0.947-  49 1.83  58 1.94   6 1.95
 150  0.998  0.876  0.628-  44 1.83  57 1.83  59 1.94
 151  0.002  0.876  0.872-  43 1.83  56 1.83  58 1.94
 152  0.828  0.751  0.718-  57 1.86  63 2.02  58 2.07   6 2.10
 153  0.172  0.751  0.782-  56 1.86  62 2.02  59 2.07   5 2.10
 154  0.663  0.876  0.553-  52 1.83  13 1.94  63 1.94
 155  0.337  0.876  0.947-  53 1.83  24 1.94  62 1.94
 156  0.497  0.750  0.628-  61 1.83   3 1.84  63 1.93
 157  0.503  0.750  0.872-  60 1.83   4 1.84  62 1.93
 158  0.328  0.875  0.719-  61 1.86  59 2.00  24 2.10  62 2.11
 159  0.672  0.875  0.781-  60 1.86  58 2.00  13 2.10  63 2.11
 
  LATTYP: Found a simple monoclinic cell.
 ALAT       =    14.6889751464
 B/A-ratio  =     0.8259161174
 C/A-ratio  =     1.5972413798
 COS(beta)  =    -0.9171837574
  
  Lattice vectors:
  
 A1 = ( -11.8609006218,   0.0000000000,  -8.6651617002)
 A2 = (   0.0000000000, -12.1318613217,   0.0000000000)
 A3 = (  11.8609006218,   0.0000000000,  20.2429474736)


Analysis of symmetry for initial positions (statically):
=====================================================================
 Subroutine PRICEL returns:
 Original cell was already a primitive cell.
 

 Routine SETGRP: Setting up the symmetry group for a 
 simple monoclinic supercell.


 Subroutine GETGRP returns: Found  2 space group operations
 (whereof  1 operations were pure point group operations)
 out of a pool of  4 trial point group operations.


The static configuration has the point symmetry C_1 .
 The point group associated with its full space group is C_2 .


Analysis of symmetry for dynamics (positions and initial velocities):
=====================================================================
 Subroutine PRICEL returns:
 Original cell was already a primitive cell.
 

 Routine SETGRP: Setting up the symmetry group for a 
 simple monoclinic supercell.


 Subroutine GETGRP returns: Found  2 space group operations
 (whereof  1 operations were pure point group operations)
 out of a pool of  4 trial point group operations.


The dynamic configuration has the point symmetry C_1 .
 The point group associated with its full space group is C_2 .


 Subroutine INISYM returns: Found  2 space group operations
 (whereof  1 operations are pure point group operations),
 and found     1 'primitive' translations

 
 
 KPOINTS: KPOINTS created by Atomic Simulation Env
  k-points in reciprocal lattice
Space group operators:
 irot       det(A)        alpha          n_x          n_y          n_z        tau_x        tau_y        tau_z
    1     1.000000     0.000000     1.000000     0.000000     0.000000     0.000000     0.000000     0.000000
    2     1.000000   180.000000     0.000000     1.000000     0.000000     0.000000     0.000000     0.500000

 ----------------------------------------------------------------------------- 
|                                                                             |
|           W    W    AA    RRRRR   N    N  II  N    N   GGGG   !!!           |
|           W    W   A  A   R    R  NN   N  II  NN   N  G    G  !!!           |
|           W    W  A    A  R    R  N N  N  II  N N  N  G       !!!           |
|           W WW W  AAAAAA  RRRRR   N  N N  II  N  N N  G  GGG   !            |
|           WW  WW  A    A  R   R   N   NN  II  N   NN  G    G                |
|           W    W  A    A  R    R  N    N  II  N    N   GGGG   !!!           |
|                                                                             |
|      Your generating k-point grid is not commensurate to the symmetry       |
|      of the lattice.  This can cause   slow convergence with respect        |
|      to k-points for HF type calculations                                   |
|      suggested SOLUTIONS:                                                   |
|       ) if not already the case, use automatic k-point generation           |
|       ) shift your grid to Gamma (G) (e.g. required for hex or fcc lattice) |
|                                                                             |
 ----------------------------------------------------------------------------- 

 
 Subroutine IBZKPT_HF returns following result:
 ==============================================
 
 Found      4 k-points in 1st BZ
 the following      4 k-points will be used (e.g. in the exchange kernel)
 Following reciprocal coordinates:   # in IRBZ
  0.250000  0.250000  0.250000    0.25000000   1 t-inv F
 -0.250000  0.250000 -0.250000    0.25000000   1 t-inv F
 -0.250000 -0.250000 -0.250000    0.25000000   1 t-inv T
  0.250000 -0.250000  0.250000    0.25000000   1 t-inv T


--------------------------------------------------------------------------------------------------------




 Dimension of arrays:
   k-points           NKPTS =      1   k-points in BZ     NKDIM =      4   number of bands    NBANDS=    864
   number of dos      NEDOS =    301   number of ions     NIONS =    159
   non local maximal  LDIM  =      6   non local SUM 2l+1 LMDIM =     18
   total plane-waves  NPLWV = 216000
   max r-space proj   IRMAX =   1478   max aug-charges    IRDMAX=   5112
   dimension x,y,z NGX =    60 NGY =   60 NGZ =   60
   dimension x,y,z NGXF=   120 NGYF=  120 NGZF=  120
   support grid    NGXF=   120 NGYF=  120 NGZF=  120
   ions per type =              63  96
 NGX,Y,Z   is equivalent  to a cutoff of   8.17,  8.22,  8.62 a.u.
 NGXF,Y,Z  is equivalent  to a cutoff of  16.33, 16.44, 17.23 a.u.


 I would recommend the setting:
   dimension x,y,z NGX =    60 NGY =   59 NGZ =   57
 SYSTEM =  unknown system                          
 POSCAR =  Ga  O                                   

 Startparameter for this run:
   NWRITE =      2    write-flag & timer
   PREC   = normal    normal or accurate (medium, high low for compatibility)
   ISTART =      1    job   : 0-new  1-cont  2-samecut
   ICHARG =      0    charge: 1-file 2-atom 10-const
   ISPIN  =      1    spin polarized calculation?
   LNONCOLLINEAR =      F non collinear calculations
   LSORBIT =      F    spin-orbit coupling
   INIWAV =      1    electr: 0-lowe 1-rand  2-diag
   LASPH  =      F    aspherical Exc in radial PAW
   METAGGA=      F    non-selfconsistent MetaGGA calc.

 Electronic Relaxation 1
   ENCUT  =  400.0 eV  29.40 Ry    5.42 a.u.  19.92 19.78 18.88*2*pi/ulx,y,z
   ENINI  =  400.0     initial cutoff
   ENAUG  =  605.4 eV  augmentation charge cutoff
   NELM   =     40;   NELMIN=  2; NELMDL=  0     # of ELM steps 
   EDIFF  = 0.1E-03   stopping-criterion for ELM
   LREAL  =      T    real-space projection
   NLSPLINE    = F    spline interpolate recip. space projectors
   LCOMPAT=      F    compatible to vasp.4.4
   GGA_COMPAT  = T    GGA compatible to vasp.4.4-vasp.4.6
   LMAXPAW     = -100 max onsite density
   LMAXMIX     =    2 max onsite mixed and CHGCAR
   VOSKOWN=      0    Vosko Wilk Nusair interpolation
   ROPT   =   -0.00050  -0.00050
 Ionic relaxation
   EDIFFG = 0.1E-02   stopping-criterion for IOM
   NSW    =     45    number of steps for IOM
   NBLOCK =      1;   KBLOCK =     45    inner block; outer block 
   IBRION =      2    ionic relax: 0-MD 1-quasi-New 2-CG
   NFREE  =      1    steps in history (QN), initial steepest desc. (CG)
   ISIF   =      0    stress and relaxation
   IWAVPR =     11    prediction:  0-non 1-charg 2-wave 3-comb
   ISYM   =      3    0-nonsym 1-usesym 2-fastsym
   LCORR  =      T    Harris-Foulkes like correction to forces

   POTIM  = 0.3500    time-step for ionic-motion
   TEIN   =    0.0    initial temperature
   TEBEG  =    0.0;   TEEND  =   0.0 temperature during run
   SMASS  =  -3.00    Nose mass-parameter (am)
   estimated Nose-frequenzy (Omega)   =  0.10E-29 period in steps =****** mass=  -0.341E-26a.u.
   SCALEE = 1.0000    scale energy and forces
   NPACO  =    256;   APACO  = 16.0  distance and # of slots for P.C.
   PSTRESS=    0.0 pullay stress

  Mass of Ions in am
   POMASS =  69.72 16.00
  Ionic Valenz
   ZVAL   =  13.00  6.00
  Atomic Wigner-Seitz radii
   RWIGS  =  -1.00 -1.00
  virtual crystal weights 
   VCA    =   1.00  1.00
   NELECT =    1398.0000    total number of electrons
   NUPDOWN=      -1.0000    fix difference up-down

 DOS related values:
   EMIN   =  10.00;   EMAX   =-10.00  energy-range for DOS
   EFERMI =   0.00
   ISMEAR =     0;   SIGMA  =   0.05  broadening in eV -4-tet -1-fermi 0-gaus

 Electronic relaxation 2 (details)
   IALGO  =     58    algorithm
   LDIAG  =      T    sub-space diagonalisation (order eigenvalues)
   LSUBROT=      F    optimize rotation matrix (better conditioning)
   TURBO    =      0    0=normal 1=particle mesh
   IRESTART =      0    0=no restart 2=restart with 2 vectors
   NREBOOT  =      0    no. of reboots
   NMIN     =      0    reboot dimension
   EREF     =   0.00    reference energy to select bands
   IMIX   =      4    mixing-type and parameters
     AMIX     =   0.40;   BMIX     =  1.00
     AMIX_MAG =   1.60;   BMIX_MAG =  1.00
     AMIN     =   0.10
     WC   =   100.;   INIMIX=   1;  MIXPRE=   1;  MAXMIX= -45

 Intra band minimization:
   WEIMIN = 0.0010     energy-eigenvalue tresh-hold
   EBREAK =  0.29E-07  absolut break condition
   DEPER  =   0.30     relativ break condition  

   TIME   =   0.40     timestep for ELM

  volume/ion in A,a.u.               =      10.48        70.71
  Fermi-wavevector in a.u.,A,eV,Ry     =   1.544141  2.918004 32.441352  2.384372
  Thomas-Fermi vector in A             =   2.649704
 
 Write flags
   LWAVE  =      T    write WAVECAR
   LCHARG =      F    write CHGCAR
   LVTOT  =      F    write LOCPOT, total local potential
   LVHAR  =      T    write LOCPOT, Hartree potential only
   LELF   =      F    write electronic localiz. function (ELF)
   LORBIT =     10    0 simple, 1 ext, 2 COOP (PROOUT)


 Dipole corrections
   LMONO  =      F    monopole corrections only (constant potential shift)
   LDIPOL =      F    correct potential (dipole corrections)
   IDIPOL =      0    1-x, 2-y, 3-z, 4-all directions 
   EPSILON=  1.0000000 bulk dielectric constant

 Exchange correlation treatment:
   GGA     =    --    GGA type
   LEXCH   =     8    internal setting for exchange type
   VOSKOWN=      0    Vosko Wilk Nusair interpolation
   EXXOEP  =     0    0=HF, 1=EXX-LHF (local Hartree Fock) 2=EXX OEP
   LHFCALC =     T    Hartree Fock is set to
   LSYMGRAD=     F    symmetrize gradient (conserves proper symmetry)
   PRECFOCK=fast      Normal, Fast or Accurate (Low or Medium for compatibility)
   LRHFCALC=     F    long range Hartree Fock
   LRSCOR  =     F    long range correlation only (use DFT for short range part)
   LTHOMAS =     F    Thomas Fermi screening in HF
   LMODELHF=     F    short range full HF, long range fraction AEXX
   ENCUT4O =  -1.0   cutoff for four orbital integrals eV
   LMAXFOCK=     4    L truncation for augmentation on plane wave grid
   LMAXFOCKAE=  -1    L truncation for all-electron charge restoration on plane wave grid
   NMAXFOCKAE=   1    number of basis functions for all-electron charge restoration
   LFOCKAEDFT=     F  apply the AE augmentation even for DFT
   NKREDX  =     1    reduce k-point grid by
   NKREDY  =     1    reduce k-point grid by
   NKREDZ  =     1    reduce k-point grid by
   SHIFTRED=     F    shift reduced grid of Gamma
   HFKIDENT=     F    idential grid for each k-point
   ODDONLY =     F    use only odd q-grid points
   EVENONLY=     F    use only even q-grid points
   HFALPHA =   -1.0000 decay constant for conv. correction
   MCALPHA =    0.0000 extent of test-charge in conv. correction in multipole expansion
   AEXX    =    0.3200 exact exchange contribution
   HFSCREEN=    0.2000 screening length (either q_TF or 0.3 A-1)
   HFSCREENC=   0.2000 screening length for correlation (either q_TF or 0.3 A-1)
   HFRCUT  =    0.0000 spherical cutoff for potential kernel
   ALDAX   =    0.6800 LDA exchange part
   AGGAX   =    0.6800 GGA exchange part
   ALDAC   =    1.0000 LDA correlation
   AGGAC   =    1.0000 GGA correlation
   NBANDSGWLOW=     1    first orbital included in HF term
   ENCUTFOCK=  -1.0 apply spherical cutoff to Coloumb kernel
 Linear response parameters
   LEPSILON=     F    determine dielectric tensor
   LRPA    =     F    only Hartree local field effects (RPA)
   LNABLA  =     F    use nabla operator in PAW spheres
   LVEL    =     F    velocity operator in full k-point grid
   LINTERFAST=   F  fast interpolation
   KINTER  =     0    interpolate to denser k-point grid
   CSHIFT  =0.1000    complex shift for real part using Kramers Kronig
   OMEGAMAX=  -1.0    maximum frequency
   DEG_THRESHOLD= 0.2000000E-02 threshold for treating states as degnerate
   RTIME   =    0.100 relaxation time in fs

 Orbital magnetization related:
   ORBITALMAG=     F  switch on orbital magnetization
   LCHIMAG   =     F  perturbation theory with respect to B field
   DQ        =  0.001000  dq finite difference perturbation B field



--------------------------------------------------------------------------------------------------------


 conjugate gradient relaxation of ions
 charge density and potential will be updated during run
 non-spin polarized calculation
 Conjugate gradient for all bands (Freysoldt, et al. PRB 79, 241103 (2009))
 preconditioned conjugated gradient                                        
 perform sub-space diagonalisation
    before iterative eigenvector-optimisation
 modified Broyden-mixing scheme, WC =      100.0
 initial mixing is a Kerker type mixing with AMIX =  0.4000 and BMIX =      1.0000
 Hartree-type preconditioning will be used
 using additional bands          165
 real space projection scheme for non local part
 use partial core corrections
 no Harris-corrections to forces 
 use gradient corrections 
 use of overlap-Matrix (Vanderbilt PP)
 Gauss-broadening in eV      SIGMA  =   0.05


--------------------------------------------------------------------------------------------------------


  energy-cutoff  :      400.00
  volume of cell :     1665.98
      direct lattice vectors                 reciprocal lattice vectors
    11.860900622  0.000000000 -2.912624073     0.084310630  0.000000000  0.000000000
     0.000000000 12.131861322  0.000000000     0.000000000  0.082427583  0.000000000
     0.000000000  0.000000000 11.577785773     0.021210029  0.000000000  0.086372301

  length of vectors
    12.213285494 12.131861322 11.577785773     0.084310630  0.082427583  0.088938404


 
 old parameters found on file WAVECAR:
  energy-cutoff  :      400.00
  volume of cell :     1665.98
      direct lattice vectors                 reciprocal lattice vectors
    11.860900622  0.000000000 -2.912624073     0.084310630  0.000000000  0.000000000
     0.000000000 12.131861322  0.000000000     0.000000000  0.082427583  0.000000000
     0.000000000  0.000000000 11.577785773     0.021210029  0.000000000  0.086372301

  length of vectors

 
 k-points in units of 2pi/SCALE and weight: KPOINTS created by Atomic Simulation Env
   0.02638016  0.02060690  0.02159308       1.000
 
 k-points in reciprocal lattice and weights: KPOINTS created by Atomic Simulation Env
   0.25000000  0.25000000  0.25000000       1.000
 
 position of ions in fractional coordinates (direct lattice) 
   0.50000000  0.37579165  0.25000000
   0.09050170  0.00015472  0.39660131
   0.41041294  0.62447259  0.60530423
   0.58958706  0.62447259  0.89469577
   0.15952430  0.62379955  0.65627768
   0.84047570  0.62379955  0.84372232
   0.90914091  0.49920415  0.60463239
   0.09085909  0.49920415  0.89536761
   0.83840647  0.37495537  0.84578679
   0.91043721  0.25033876  0.60468650
   0.08956279  0.25033876  0.89531350
   0.83965031  0.62509558  0.34376362
   0.65873849  0.00183125  0.65475009
   0.16034969  0.62509558  0.15623638
   0.08533905  0.25081415  0.39434785
   0.91466095  0.25081415  0.10565215
   0.82977719  0.37496528  0.34724578
   0.17022281  0.37496528  0.15275422
   0.33789854  0.25187228  0.34882089
   0.66210146  0.25187228  0.15117911
   0.41254300  0.61402730  0.10606918
   0.33783122  0.49871781  0.34827890
   0.58745700  0.61402730  0.39393082
   0.34126151  0.00183125  0.84524991
   0.41022857  0.12496900  0.60530647
   0.58977143  0.12496900  0.89469353
   0.90949830  0.00015472  0.10339869
   0.83939670  0.12446795  0.34329962
   0.16060330  0.12446795  0.15670038
   0.58643314  0.13597381  0.39362385
   0.41356686  0.13597381  0.10637615
   0.34325195  0.00125930  0.34256405
   0.65674805  0.00125930  0.15743595
   0.08643597  0.49902971  0.39439330
   0.66216878  0.49871781  0.15172110
   0.66048152  0.25499335  0.64776798
   0.91356403  0.49902971  0.10560670
   0.41364563  0.37482126  0.60285521
   0.58635437  0.37482126  0.89714479
   0.16159353  0.37495537  0.65421321
   0.66023161  0.49536445  0.64952099
   0.33976839  0.49536445  0.85047901
   0.08976428  0.99990182  0.89682462
   0.91023572  0.99990182  0.60317538
   0.84030350  0.12557201  0.84339470
   0.15969650  0.12557201  0.65660530
   0.33951848  0.25499335  0.85223202
   0.08923557  0.75011721  0.39635234
   0.91076443  0.75011721  0.10364766
   0.84000970  0.87538954  0.34272841
   0.15999030  0.87538954  0.15727159
   0.58791804  0.87483150  0.39627397
   0.41208196  0.87483150  0.10372603
   0.34279608  0.74885690  0.34330879
   0.65720392  0.74885690  0.15669121
   0.08851077  0.75019160  0.89653012
   0.91148923  0.75019160  0.60346988
   0.83965310  0.87524646  0.84267048
   0.16034690  0.87524646  0.65732952
   0.58973538  0.87513946  0.89648634
   0.41026462  0.87513946  0.60351366
   0.34093828  0.74833732  0.84594036
   0.65906172  0.74833732  0.65405964
   0.67427073  0.37532884  0.78758766
   0.32572927  0.37532884  0.71241234
   0.50215143  0.24847677  0.87216743
   0.16284581  0.50146609  0.05254115
   0.50435296  0.49590492  0.13674495
   0.99773497  0.62564855  0.12828479
   0.50223469  0.50090382  0.87194421
   0.49776531  0.50090382  0.62805579
   0.33696611  0.62399276  0.94874409
   0.66303389  0.62399276  0.55125591
   0.16931034  0.50252432  0.77700992
   0.83068966  0.50252432  0.72299008
   0.00367296  0.62467416  0.87288219
   0.99632704  0.62467416  0.62711781
   0.83869719  0.50082638  0.94903492
   0.16130281  0.50082638  0.55096508
   0.67464876  0.62710519  0.28207385
   0.32535124  0.62710519  0.21792615
   0.49564704  0.49590492  0.36325505
   0.49784857  0.24847677  0.62783257
   0.33471923  0.62574544  0.44852915
   0.66528077  0.62574544  0.05147085
   0.17084144  0.50192575  0.28071809
   0.82915856  0.50192575  0.21928191
   0.00226503  0.62564855  0.37171521
   0.83715419  0.50146609  0.44745885
   0.32382622  0.37592605  0.93850912
   0.66938707  0.37576031  0.26968036
   0.16943844  0.24622216  0.77773811
   0.17247092  0.99920511  0.78158738
   0.82752908  0.99920511  0.71841262
   0.00343771  0.12386923  0.87278587
   0.99656229  0.12386923  0.62721413
   0.83627221  0.99969808  0.94654322
   0.16372779  0.99969808  0.55345678
   0.67379287  0.12267947  0.28192378
   0.32620713  0.12267947  0.21807622
   0.66265386  0.12492901  0.55085483
   0.50477292  0.00248443  0.37296461
   0.33524624  0.12324258  0.44836118
   0.66475376  0.12324258  0.05163882
   0.17276218  0.99892409  0.28108826
   0.82723782  0.99892409  0.21891174
   0.00225176  0.12315524  0.37163572
   0.99774824  0.12315524  0.12836428
   0.83669775  0.99904326  0.44682548
   0.16330225  0.99904326  0.05317452
   0.49522708  0.00248443  0.12703539
   0.33734614  0.12492901  0.94914517
   0.49680070  0.99975650  0.62815662
   0.50319930  0.99975650  0.87184338
   0.83056156  0.24622216  0.72226189
   0.00281606  0.37541966  0.87235792
   0.99718394  0.37541966  0.62764208
   0.83927405  0.24862455  0.94899239
   0.16072595  0.24862455  0.55100761
   0.32689969  0.62610451  0.71977370
   0.33061293  0.37576031  0.23031964
   0.49591168  0.25607335  0.36390667
   0.50408832  0.25607335  0.13609333
   0.32875575  0.37585048  0.45174770
   0.67124425  0.37585048  0.04825230
   0.17099762  0.24733201  0.28128866
   0.82900238  0.24733201  0.21871134
   0.99877068  0.37551113  0.37146338
   0.00122932  0.37551113  0.12853662
   0.83782896  0.24777355  0.44738769
   0.16217104  0.24777355  0.05261231
   0.67303035  0.12286818  0.78026571
   0.32696965  0.12286818  0.71973429
   0.67617378  0.37592605  0.56149088
   0.67310031  0.62610451  0.78022630
   0.16255681  0.75156061  0.05307048
   0.83744319  0.75156061  0.44692952
   0.99671598  0.87578030  0.12765762
   0.00328402  0.87578030  0.37234238
   0.82747194  0.75179966  0.21853733
   0.17252806  0.75179966  0.28146267
   0.66261202  0.87567130  0.05373631
   0.33738798  0.87567130  0.44626369
   0.49530977  0.74651753  0.12676134
   0.50469023  0.74651753  0.37323866
   0.32877570  0.87538913  0.21930669
   0.67122430  0.87538913  0.28069331
   0.16290803  0.75035240  0.55344970
   0.83709197  0.75035240  0.94655030
   0.99760179  0.87568592  0.62827368
   0.00239821  0.87568592  0.87172632
   0.82764675  0.75097265  0.71814284
   0.17235325  0.75097265  0.78185716
   0.66333457  0.87561591  0.55320566
   0.33666543  0.87561591  0.94679434
   0.49677310  0.75018872  0.62800838
   0.50322690  0.75018872  0.87199162
   0.32754998  0.87538267  0.71899831
   0.67245002  0.87538267  0.78100169
 
 position of ions in cartesian coordinates  (Angst):
   5.93045031  4.55905215  1.43813441
   1.07343169  0.00187701  4.32816755
   4.86786713  7.57601488  5.81270409
   6.99303350  7.57601488  8.64135050
   1.89210183  7.56784968  7.13360810
   9.96879879  7.56784968  7.32044648
  10.78322998  6.05627554  4.35231859
   1.07767064  6.05627554 10.10173600
   9.94425586  4.54890659  7.35037544
  10.79860522  3.03707510  4.34916947
   1.06229540  3.03707510 10.10488511
   9.95900885  7.58357294  1.53443583
   7.81323172  0.02221650  5.66189874
   1.90189177  7.58357294  1.34183299
   1.01219800  3.04284248  4.31711433
  10.84870262  3.04284248 -1.44084552
   9.84190484  4.54902673  1.60350818
   2.01899578  4.54902673  1.27276063
   4.00778103  3.05567962  3.05440206
   7.85311959  3.05567962 -0.17813325
   4.89313149  7.44929405  0.02646358
   4.00698248  6.05037532  3.04832320
   6.96776914  7.44929405  2.84980524
   4.04766891  0.02221650  8.79215584
   4.86568026  1.51610656  5.81326699
   6.99522036  1.51610656  8.64078760
  10.78746893  0.00187701 -1.45189874
   9.95600080  1.51002785  1.52980244
   1.90489982  1.51002785  1.34646637
   6.95562525  1.64961541  2.84923336
   4.90527537  1.64961541  0.02703545
   4.07127726  0.01527762  2.96636924
   7.78962336  0.01527762 -0.09010043
   1.02520840  6.05415925  4.31444570
   7.85391814  6.05037532 -0.17205438
   7.83390568  3.09354399  5.57598450
  10.83569223  6.05415925 -1.43817689
   4.90620974  4.54727950  5.77493428
   6.95469088  4.54727950  8.67912031
   1.91664476  4.54890659  7.10367915
   7.83094147  6.00969286  5.59700838
   4.02995915  6.00969286  8.85704621
   1.06468516 12.13067016 10.12179372
  10.79621546 12.13067016  4.33226087
   9.96675634  1.52342225  7.31715493
   1.89414428  1.52342225  7.13689966
   4.02699494  3.09354399  8.87807009
   1.05841423  9.10031801  4.32897278
  10.80248640  9.10031801 -1.45270397
   9.96327162 10.62010451  1.52140367
   1.89762900 10.62010451  1.35486514
   6.97323741 10.61333443  2.87559086
   4.88766321 10.61333443  0.00067795
   4.06587023  9.08502803  2.97631948
   7.79503039  9.08502803 -0.10005067
   1.04981749  9.10122050 10.12203502
  10.81108314  9.10122050  4.33201957
   9.95904203 10.61836866  7.31066441
   1.90185860 10.61836866  7.14339018
   6.99479279 10.61707055  8.66164935
   4.86610783 10.61707055  5.79240523
   4.04383504  9.07872460  8.80109122
   7.81706558  9.07872460  5.65296337
   7.99745810  4.55343749  7.15462401
   3.86344253  4.55343749  7.29943057
   5.95596821  3.01448566  8.63518927
   1.93149800  6.08371700  0.13400154
   5.98208028  6.01624974  0.11421313
  11.83403532  7.59028142 -1.42077311
   5.95695571  6.07689572  8.63236247
   5.90394491  6.07689572  5.82169212
   3.99672150  7.57019362 10.00290019
   7.86417912  7.57019362  4.45115439
   2.00817315  6.09655531  8.50291704
   9.85272747  6.09655531  5.95113754
   0.04356458  7.57846033 10.09534511
  11.81733604  7.57846033  4.35870947
   9.94770404  6.07595623  8.54491333
   1.91319658  6.07595623  5.90914126
   8.00194192  7.60795321  1.30079236
   3.85895870  7.60795321  1.57547645
   5.87882034  6.01624974  2.76205568
   5.90493242  3.01448566  5.81886532
   3.97007154  7.59145685  4.21806310
   7.89082908  7.59145685 -1.34179429
   2.02633340  6.08929356  2.75249702
   9.83456722  6.08929356  0.12377180
   0.02686531  7.59028142  4.29704192
   9.92940263  6.08371700  2.74226727
   3.84087058  4.56068274  9.92267352
   7.93953357  4.55867193  1.17262855
   2.00969253  2.98713315  8.51097476
   2.04566045 12.12221786  8.54670829
   9.81524017 12.12221786  5.90734630
   0.04077430  1.50276435 10.09491506
  11.82012633  1.50276435  4.35913953
   9.91894160 12.12819846  8.52312804
   1.94195903 12.12819846  5.93092654
   7.99179028  1.48833034  1.30154774
   3.86911034  1.48833034  1.57472108
   7.85967154  1.51562138  4.44761770
   5.98706145  0.03014079  2.84789064
   3.97632230  1.49516193  4.21458345
   7.88457832  1.49516193 -1.33831464
   2.04911507 12.11880848  2.75118843
   9.81178555 12.11880848  0.12508039
   0.02670794  1.49410224  4.29616021
  11.83419268  1.49410224 -1.41989139
   9.92398889 12.12025423  2.73626365
   1.93691174 12.12025423  0.14000517
   5.87383917  0.03014079  0.02837817
   4.00122909  1.51562138 10.00643689
   5.89250369 12.12890722  5.82566910
   5.96839693 12.12890722  8.62838548
   9.85120809  2.98713315  5.94307982
   0.03340096  4.55453930 10.09177105
  11.82749966  4.55453930  4.36228353
   9.95454611  3.01627853  8.54274084
   1.90635452  3.01627853  5.91131374
   3.87732479  7.59581310  7.38124978
   3.92136705  4.55867193  1.70364026
   5.88195912  3.10664638  2.76882922
   5.97894150  3.10664638  0.10743959
   3.89933923  4.55976587  4.27269623
   7.96156139  4.55976587 -1.39642742
   2.02818581  3.00059759  2.75864808
   9.83271481  3.00059759  0.11762074
  11.84631976  4.55564890  1.39167991
   0.01458086  4.55564890  1.48458890
   9.93740606  3.00595436  2.73947805
   1.92349457  3.00595436  0.13679077
   7.98274610  1.49061968  7.07346488
   3.87815452  1.49061968  7.38058971
   8.02003005  4.56068274  4.53138107
   7.98357583  7.59581310  7.07280480
   1.92807018  9.11782912  0.14097179
   9.93283044  9.11782912  2.73529702
  11.82194925 10.62484514 -1.42506641
   0.03895138 10.62484514  4.30133523
   9.81456240  9.12072920  0.12006376
   2.04633822  9.12072920  2.75620505
   7.85917531 10.62352283 -1.30779222
   4.00172531 10.62352283  4.18406103
   5.87481994  9.05664718  0.02496453
   5.98608069  9.05664718  2.85130429
   3.89957593 10.62009954  1.58148581
   7.96132469 10.62009954  1.29478301
   1.93223593  9.10317123  5.93323224
   9.92866469  9.10317123  8.52082235
  11.83245563 10.62370020  4.36837913
   0.02844499 10.62370020 10.08567546
   9.81663588  9.11069606  5.90388013
   2.04426474  9.11069606  8.55017446
   7.86774547 10.62285081  4.47285240
   3.99315515 10.62285081  9.98120218
   5.89217634  9.10118549  5.82403316
   5.96872428  9.10118549  8.63002143
   3.88503781 10.62002119  7.37037838
   7.97586281 10.62002119  7.08367621
 


--------------------------------------------------------------------------------------------------------


 k-point  1 :   0.2500 0.2500 0.2500  plane waves:   30269

 maximum and minimum number of plane-waves per node :     30269    30269

 maximum number of plane-waves:     30269
 maximum index in each direction: 
   IXMAX=   19   IYMAX=   19   IZMAX=   18
   IXMIN=  -20   IYMIN=  -20   IZMIN=  -19

 WARNING: aliasing errors must be expected set NGX to  80 to avoid them
 WARNING: aliasing errors must be expected set NGY to  80 to avoid them
 WARNING: aliasing errors must be expected set NGZ to  76 to avoid them
 aliasing errors are usually negligible using standard VASP settings
 and one can safely disregard these warnings

 serial   3D FFT for wavefunctions
 parallel 3D FFT for charge:
    minimum data exchange during FFTs selected (reduces bandwidth)


 FFT grid for exact exchange (Hartree Fock) 
  NGX = 42; NGY = 42; NGZ = 40

 
 Radii for the augmentation spheres in the non-local exchange
 for species   1 augmentation radius   1.277 (default was   1.031)
       energy cutoff for augmentation   1600.0
 for species   2 augmentation radius   0.820 (default was   0.722)
       energy cutoff for augmentation   1600.0
 Maximum index for augmentation-charges in exchange          382
  SETUP_FOCK is finished

 total amount of memory used by VASP on root node    80801. kBytes
========================================================================

   base      :      30000. kBytes
   nonlr-proj:      32598. kBytes
   fftplans  :       1403. kBytes
   grid      :       9513. kBytes
   one-center:       2472. kBytes
   HF        :        129. kBytes
   wavefun   :       4686. kBytes
 
     INWAV:  cpu time    1.3744: real time    1.3750
 Broyden mixing: mesh for mixing (old mesh)
   NGX = 39   NGY = 39   NGZ = 37
  (NGX  =120   NGY  =120   NGZ  =120)
  gives a total of  56277 points

 charge density for first step will be calculated from the start-wavefunctions


--------------------------------------------------------------------------------------------------------


 Maximum index for non-local projection operator         1401
 Maximum index for augmentation-charges          168 (set IRDMAX)


--------------------------------------------------------------------------------------------------------


 initial charge from wavefunction
 First call to EWALD:  gamma=   0.150
 Maximum number of real-space cells 3x 3x 3
 Maximum number of reciprocal cells 3x 3x 3

 FEWALD executed in parallel
    FEWALD:  cpu time    0.0050: real time    0.0050


----------------------------------------- Iteration    1(   1)  ---------------------------------------


    POTLOK:  cpu time    0.0537: real time    0.0551
    SETDIJ:  cpu time    0.3465: real time    0.3466
    TRIAL :  cpu time   68.1835: real time   68.2363
    CORREC:  cpu time   67.7218: real time   67.7609
    CHARGE:  cpu time    0.1111: real time    0.1117
    --------------------------------------------
      LOOP:  cpu time  136.4247: real time  136.5473

 eigenvalue-minimisations  :     0
 total energy-change (2. order) :-0.1489441E+04  (-0.3205682E-05)
 number of electron    1398.0002463 magnetization 
 augmentation part      606.1468027 magnetization 

 Free energy of the ion-electron system (eV)
  ---------------------------------------------------
  alpha Z        PSCENC =      9368.91501797
  Ewald energy   TEWEN  =   -116632.86972998
  -Hartree energ DENC   =    -45147.37377607
  -exchange      EXHF   =      5250.11931217
  -V(xc)+E(xc)   XCENC  =      4731.60568493
  PAW double counting   =    126595.11519118  -148157.22763190
  entropy T*S    EENTRO =        -0.00000000
  eigenvalues    EBANDS =    -13676.05693710
  atomic energy  EATOM  =    176178.33200529
  ---------------------------------------------------
  free energy    TOTEN  =     -1489.44086350 eV

  energy without entropy =    -1489.44086350  energy(sigma->0) =    -1489.44086350
  exchange ACFDT corr.  =        -0.00000000  see jH, gK, PRB 81, 115126


--------------------------------------------------------------------------------------------------------




----------------------------------------- Iteration    1(   2)  ---------------------------------------


    POTLOK:  cpu time    0.0462: real time    0.0463
    SETDIJ:  cpu time    0.3464: real time    0.3467
    TRIAL :  cpu time   67.9239: real time   67.9719
    CORREC:  cpu time   67.7140: real time   67.7490
    CHARGE:  cpu time    0.1116: real time    0.1117
    --------------------------------------------
      LOOP:  cpu time  136.1448: real time  136.2376

 eigenvalue-minimisations  :     0
 total energy-change (2. order) :-0.3206260E-05  (-0.2062962E-05)
 number of electron    1398.0002463 magnetization 
 augmentation part      606.1464747 magnetization 

 Free energy of the ion-electron system (eV)
  ---------------------------------------------------
  alpha Z        PSCENC =      9368.91501797
  Ewald energy   TEWEN  =   -116632.86972998
  -Hartree energ DENC   =    -45147.42576473
  -exchange      EXHF   =      5250.12077607
  -V(xc)+E(xc)   XCENC  =      4731.60725988
  PAW double counting   =    126595.17218673  -148157.34515731
  entropy T*S    EENTRO =        -0.00000000
  eigenvalues    EBANDS =    -13675.94746062
  atomic energy  EATOM  =    176178.33200529
  ---------------------------------------------------
  free energy    TOTEN  =     -1489.44086671 eV

  energy without entropy =    -1489.44086671  energy(sigma->0) =    -1489.44086671
  exchange ACFDT corr.  =        -0.00000000  see jH, gK, PRB 81, 115126


--------------------------------------------------------------------------------------------------------


  average scaling for gradient   0.9635


 average (electrostatic) potential at core
  the test charge radii are     1.0314  0.7215
  (the norm of the test charge is              1.0000)
       1 -19.7506       2 -20.4550       3 -20.3754       4 -20.3754       5 -20.3271
       6 -20.3271       7 -20.3676       8 -20.3676       9 -20.2764      10 -20.3952
      11 -20.3952      12 -20.3109      13 -20.3430      14 -20.3109      15 -20.3630
      16 -20.3630      17 -20.3147      18 -20.3147      19 -19.9864      20 -19.9864
      21 -20.1385      22 -19.9310      23 -20.1385      24 -20.3430      25 -20.3564
      26 -20.3564      27 -20.4550      28 -20.2850      29 -20.2850      30 -20.1737
      31 -20.1737      32 -20.3089      33 -20.3089      34 -20.3359      35 -19.9310
      36 -19.8080      37 -20.3359      38 -20.0486      39 -20.0486      40 -20.2764
      41 -19.7598      42 -19.7598      43 -20.4421      44 -20.4421      45 -20.2963
      46 -20.2963      47 -19.8080      48 -20.4938      49 -20.4938      50 -20.3965
      51 -20.3965      52 -20.3959      53 -20.3959      54 -20.3619      55 -20.3619
      56 -20.4829      57 -20.4829      58 -20.4295      59 -20.4295      60 -20.4578
      61 -20.4578      62 -20.3994      63 -20.3994      64 -63.3819      65 -63.3819
      66 -63.5841      67 -63.3626      68 -62.8237      69 -63.7519      70 -63.5684
      71 -63.5684      72 -63.2848      73 -63.2848      74 -63.7268      75 -63.7268
      76 -63.7111      77 -63.7111      78 -63.3172      79 -63.3172      80 -63.6789
      81 -63.6789      82 -62.8237      83 -63.5841      84 -63.3849      85 -63.3849
      86 -63.7249      87 -63.7249      88 -63.7519      89 -63.3626      90 -61.3868
      91 -63.0325      92 -63.7373      93 -63.9259      94 -63.9259      95 -63.6924
      96 -63.6924      97 -63.4706      98 -63.4706      99 -63.6604     100 -63.6604
     101 -63.2817     102 -63.5331     103 -63.3748     104 -63.3748     105 -63.9031
     106 -63.9031     107 -63.7215     108 -63.7215     109 -63.4243     110 -63.4243
     111 -63.5331     112 -63.2817     113 -63.7420     114 -63.7420     115 -63.7373
     116 -63.6669     117 -63.6669     118 -63.3384     119 -63.3384     120 -63.7670
     121 -63.0325     122 -62.8616     123 -62.8616     124 -63.0855     125 -63.0855
     126 -63.7454     127 -63.7454     128 -63.5587     129 -63.5587     130 -63.3819
     131 -63.3819     132 -63.7319     133 -63.7319     134 -61.3868     135 -63.7670
     136 -63.4522     137 -63.4522     138 -63.7751     139 -63.7751     140 -63.9112
     141 -63.9112     142 -63.4242     143 -63.4242     144 -63.5464     145 -63.5464
     146 -63.8848     147 -63.8848     148 -63.4982     149 -63.4982     150 -63.8140
     151 -63.8140     152 -63.9483     153 -63.9483     154 -63.4347     155 -63.4347
     156 -63.7702     157 -63.7702     158 -63.8790     159 -63.8790
 
 
 
 E-fermi :   1.9284     XC(G=0):  -8.8567     alpha+bet :-11.1776


 k-point     1 :       0.2500    0.2500    0.2500
  band No.  band energies     occupation 
      1     -20.1706      2.00000
      2     -20.0279      2.00000
      3     -19.9791      2.00000
      4     -19.9020      2.00000
      5     -19.8009      2.00000
      6     -19.7651      2.00000
      7     -19.6966      2.00000
      8     -19.5622      2.00000
      9     -19.5486      2.00000
     10     -19.5359      2.00000
     11     -19.4659      2.00000
     12     -19.4380      2.00000
     13     -19.3808      2.00000
     14     -19.3645      2.00000
     15     -19.3440      2.00000
     16     -19.2819      2.00000
     17     -19.2604      2.00000
     18     -19.2514      2.00000
     19     -19.2231      2.00000
     20     -19.1944      2.00000
     21     -19.1875      2.00000
     22     -19.1694      2.00000
     23     -19.1473      2.00000
     24     -19.1248      2.00000
     25     -19.1219      2.00000
     26     -19.0887      2.00000
     27     -19.0594      2.00000
     28     -19.0345      2.00000
     29     -19.0291      2.00000
     30     -19.0213      2.00000
     31     -19.0086      2.00000
     32     -18.9826      2.00000
     33     -18.9687      2.00000
     34     -18.9412      2.00000
     35     -18.9377      2.00000
     36     -18.9332      2.00000
     37     -18.9094      2.00000
     38     -18.8930      2.00000
     39     -18.8803      2.00000
     40     -18.8638      2.00000
     41     -18.8518      2.00000
     42     -18.8453      2.00000
     43     -18.8325      2.00000
     44     -18.8120      2.00000
     45     -18.7976      2.00000
     46     -18.7805      2.00000
     47     -18.7673      2.00000
     48     -18.7520      2.00000
     49     -18.7293      2.00000
     50     -18.7232      2.00000
     51     -18.7164      2.00000
     52     -18.6966      2.00000
     53     -18.6910      2.00000
     54     -18.6779      2.00000
     55     -18.6696      2.00000
     56     -18.6555      2.00000
     57     -18.6321      2.00000
     58     -18.6291      2.00000
     59     -18.6183      2.00000
     60     -18.6074      2.00000
     61     -18.5976      2.00000
     62     -18.5954      2.00000
     63     -18.5860      2.00000
     64     -18.5777      2.00000
     65     -18.5742      2.00000
     66     -18.5601      2.00000
     67     -18.5564      2.00000
     68     -18.5525      2.00000
     69     -18.5399      2.00000
     70     -18.5074      2.00000
     71     -18.4992      2.00000
     72     -18.4965      2.00000
     73     -18.4913      2.00000
     74     -18.4870      2.00000
     75     -18.4830      2.00000
     76     -18.4727      2.00000
     77     -18.4670      2.00000
     78     -18.4535      2.00000
     79     -18.4415      2.00000
     80     -18.4285      2.00000
     81     -18.4223      2.00000
     82     -18.4066      2.00000
     83     -18.3952      2.00000
     84     -18.3749      2.00000
     85     -18.3686      2.00000
     86     -18.3558      2.00000
     87     -18.3482      2.00000
     88     -18.3336      2.00000
     89     -18.3078      2.00000
     90     -18.1603      2.00000
     91     -18.0415      2.00000
     92     -18.0373      2.00000
     93     -18.0135      2.00000
     94     -17.9090      2.00000
     95     -16.8738      2.00000
     96     -16.8728      2.00000
     97     -14.5587      2.00000
     98     -14.5302      2.00000
     99     -14.5189      2.00000
    100     -14.5176      2.00000
    101     -14.5140      2.00000
    102     -14.5105      2.00000
    103     -14.4987      2.00000
    104     -14.4970      2.00000
    105     -14.4795      2.00000
    106     -14.4737      2.00000
    107     -14.4725      2.00000
    108     -14.4715      2.00000
    109     -14.4658      2.00000
    110     -14.4643      2.00000
    111     -14.4602      2.00000
    112     -14.4556      2.00000
    113     -14.4494      2.00000
    114     -14.4471      2.00000
    115     -14.4404      2.00000
    116     -14.4325      2.00000
    117     -14.4279      2.00000
    118     -14.4258      2.00000
    119     -14.4195      2.00000
    120     -14.4154      2.00000
    121     -14.4113      2.00000
    122     -14.4097      2.00000
    123     -14.4028      2.00000
    124     -14.4022      2.00000
    125     -14.3986      2.00000
    126     -14.3967      2.00000
    127     -14.3936      2.00000
    128     -14.3907      2.00000
    129     -14.3859      2.00000
    130     -14.3845      2.00000
    131     -14.3820      2.00000
    132     -14.3789      2.00000
    133     -14.3762      2.00000
    134     -14.3722      2.00000
    135     -14.3716      2.00000
    136     -14.3689      2.00000
    137     -14.3650      2.00000
    138     -14.3617      2.00000
    139     -14.3583      2.00000
    140     -14.3571      2.00000
    141     -14.3546      2.00000
    142     -14.3518      2.00000
    143     -14.3492      2.00000
    144     -14.3471      2.00000
    145     -14.3429      2.00000
    146     -14.3390      2.00000
    147     -14.3382      2.00000
    148     -14.3362      2.00000
    149     -14.3314      2.00000
    150     -14.3291      2.00000
    151     -14.3249      2.00000
    152     -14.3235      2.00000
    153     -14.3206      2.00000
    154     -14.3195      2.00000
    155     -14.3182      2.00000
    156     -14.3145      2.00000
    157     -14.3114      2.00000
    158     -14.3087      2.00000
    159     -14.3064      2.00000
    160     -14.3043      2.00000
    161     -14.2980      2.00000
    162     -14.2970      2.00000
    163     -14.2941      2.00000
    164     -14.2919      2.00000
    165     -14.2897      2.00000
    166     -14.2869      2.00000
    167     -14.2836      2.00000
    168     -14.2809      2.00000
    169     -14.2783      2.00000
    170     -14.2720      2.00000
    171     -14.2702      2.00000
    172     -14.2684      2.00000
    173     -14.2651      2.00000
    174     -14.2605      2.00000
    175     -14.2585      2.00000
    176     -14.2555      2.00000
    177     -14.2516      2.00000
    178     -14.2506      2.00000
    179     -14.2468      2.00000
    180     -14.2451      2.00000
    181     -14.2426      2.00000
    182     -14.2401      2.00000
    183     -14.2367      2.00000
    184     -14.2352      2.00000
    185     -14.2332      2.00000
    186     -14.2316      2.00000
    187     -14.2286      2.00000
    188     -14.2252      2.00000
    189     -14.2213      2.00000
    190     -14.2193      2.00000
    191     -14.2172      2.00000
    192     -14.2142      2.00000
    193     -14.2119      2.00000
    194     -14.2064      2.00000
    195     -14.2035      2.00000
    196     -14.2026      2.00000
    197     -14.1995      2.00000
    198     -14.1973      2.00000
    199     -14.1955      2.00000
    200     -14.1928      2.00000
    201     -14.1903      2.00000
    202     -14.1894      2.00000
    203     -14.1869      2.00000
    204     -14.1841      2.00000
    205     -14.1825      2.00000
    206     -14.1817      2.00000
    207     -14.1800      2.00000
    208     -14.1762      2.00000
    209     -14.1733      2.00000
    210     -14.1718      2.00000
    211     -14.1688      2.00000
    212     -14.1670      2.00000
    213     -14.1645      2.00000
    214     -14.1638      2.00000
    215     -14.1615      2.00000
    216     -14.1596      2.00000
    217     -14.1589      2.00000
    218     -14.1542      2.00000
    219     -14.1532      2.00000
    220     -14.1504      2.00000
    221     -14.1489      2.00000
    222     -14.1447      2.00000
    223     -14.1426      2.00000
    224     -14.1387      2.00000
    225     -14.1375      2.00000
    226     -14.1346      2.00000
    227     -14.1321      2.00000
    228     -14.1300      2.00000
    229     -14.1290      2.00000
    230     -14.1244      2.00000
    231     -14.1238      2.00000
    232     -14.1206      2.00000
    233     -14.1174      2.00000
    234     -14.1157      2.00000
    235     -14.1120      2.00000
    236     -14.1112      2.00000
    237     -14.1094      2.00000
    238     -14.1070      2.00000
    239     -14.1049      2.00000
    240     -14.1029      2.00000
    241     -14.1002      2.00000
    242     -14.0979      2.00000
    243     -14.0950      2.00000
    244     -14.0937      2.00000
    245     -14.0900      2.00000
    246     -14.0882      2.00000
    247     -14.0863      2.00000
    248     -14.0839      2.00000
    249     -14.0824      2.00000
    250     -14.0796      2.00000
    251     -14.0786      2.00000
    252     -14.0759      2.00000
    253     -14.0751      2.00000
    254     -14.0739      2.00000
    255     -14.0699      2.00000
    256     -14.0682      2.00000
    257     -14.0647      2.00000
    258     -14.0620      2.00000
    259     -14.0601      2.00000
    260     -14.0577      2.00000
    261     -14.0555      2.00000
    262     -14.0544      2.00000
    263     -14.0521      2.00000
    264     -14.0502      2.00000
    265     -14.0487      2.00000
    266     -14.0456      2.00000
    267     -14.0441      2.00000
    268     -14.0415      2.00000
    269     -14.0399      2.00000
    270     -14.0385      2.00000
    271     -14.0367      2.00000
    272     -14.0344      2.00000
    273     -14.0317      2.00000
    274     -14.0275      2.00000
    275     -14.0246      2.00000
    276     -14.0228      2.00000
    277     -14.0201      2.00000
    278     -14.0176      2.00000
    279     -14.0142      2.00000
    280     -14.0114      2.00000
    281     -14.0082      2.00000
    282     -14.0060      2.00000
    283     -14.0023      2.00000
    284     -13.9983      2.00000
    285     -13.9972      2.00000
    286     -13.9945      2.00000
    287     -13.9923      2.00000
    288     -13.9893      2.00000
    289     -13.9843      2.00000
    290     -13.9821      2.00000
    291     -13.9789      2.00000
    292     -13.9767      2.00000
    293     -13.9751      2.00000
    294     -13.9730      2.00000
    295     -13.9707      2.00000
    296     -13.9678      2.00000
    297     -13.9670      2.00000
    298     -13.9645      2.00000
    299     -13.9621      2.00000
    300     -13.9591      2.00000
    301     -13.9560      2.00000
    302     -13.9536      2.00000
    303     -13.9518      2.00000
    304     -13.9472      2.00000
    305     -13.9439      2.00000
    306     -13.9406      2.00000
    307     -13.9388      2.00000
    308     -13.9329      2.00000
    309     -13.9270      2.00000
    310     -13.9201      2.00000
    311     -13.9174      2.00000
    312     -13.9127      2.00000
    313     -13.9007      2.00000
    314     -13.8981      2.00000
    315     -13.8950      2.00000
    316     -13.8869      2.00000
    317     -13.8774      2.00000
    318     -13.8721      2.00000
    319     -13.8680      2.00000
    320     -13.8598      2.00000
    321     -13.8540      2.00000
    322     -13.8492      2.00000
    323     -13.8429      2.00000
    324     -13.8338      2.00000
    325     -13.8300      2.00000
    326     -13.8227      2.00000
    327     -13.8165      2.00000
    328     -13.8102      2.00000
    329     -13.8030      2.00000
    330     -13.8023      2.00000
    331     -13.7814      2.00000
    332     -13.7630      2.00000
    333     -13.7548      2.00000
    334     -13.7398      2.00000
    335     -13.7359      2.00000
    336     -13.7296      2.00000
    337     -13.7219      2.00000
    338     -13.7158      2.00000
    339     -13.7041      2.00000
    340     -13.7019      2.00000
    341     -13.6956      2.00000
    342     -13.6924      2.00000
    343     -13.6864      2.00000
    344     -13.6777      2.00000
    345     -13.6635      2.00000
    346     -13.6593      2.00000
    347     -13.6528      2.00000
    348     -13.6458      2.00000
    349     -13.6418      2.00000
    350     -13.6342      2.00000
    351     -13.6270      2.00000
    352     -13.6187      2.00000
    353     -13.6101      2.00000
    354     -13.6043      2.00000
    355     -13.5975      2.00000
    356     -13.5892      2.00000
    357     -13.5856      2.00000
    358     -13.5774      2.00000
    359     -13.5721      2.00000
    360     -13.5667      2.00000
    361     -13.5564      2.00000
    362     -13.5482      2.00000
    363     -13.5427      2.00000
    364     -13.5396      2.00000
    365     -13.5235      2.00000
    366     -13.5213      2.00000
    367     -13.5046      2.00000
    368     -13.4927      2.00000
    369     -13.4879      2.00000
    370     -13.4837      2.00000
    371     -13.4779      2.00000
    372     -13.4716      2.00000
    373     -13.4660      2.00000
    374     -13.4593      2.00000
    375     -13.4468      2.00000
    376     -13.4437      2.00000
    377     -13.4413      2.00000
    378     -13.4220      2.00000
    379     -13.4164      2.00000
    380     -13.4138      2.00000
    381     -13.4064      2.00000
    382     -13.3827      2.00000
    383     -13.3786      2.00000
    384     -13.3587      2.00000
    385     -13.3355      2.00000
    386     -13.3323      2.00000
    387     -13.3172      2.00000
    388     -13.3096      2.00000
    389     -13.3013      2.00000
    390     -13.2907      2.00000
    391     -13.2652      2.00000
    392     -13.2401      2.00000
    393     -13.2243      2.00000
    394     -13.2034      2.00000
    395     -13.1867      2.00000
    396     -13.1733      2.00000
    397     -13.1699      2.00000
    398     -13.1523      2.00000
    399     -13.1383      2.00000
    400     -13.1259      2.00000
    401     -13.0797      2.00000
    402     -13.0507      2.00000
    403     -13.0316      2.00000
    404     -13.0202      2.00000
    405     -12.9868      2.00000
    406     -12.9482      2.00000
    407     -12.8978      2.00000
    408     -12.7853      2.00000
    409     -12.7524      2.00000
    410     -12.6282      2.00000
    411     -12.5965      2.00000
    412      -6.7091      2.00000
    413      -6.4948      2.00000
    414      -6.4421      2.00000
    415      -6.4248      2.00000
    416      -6.3705      2.00000
    417      -6.2933      2.00000
    418      -6.1816      2.00000
    419      -6.1316      2.00000
    420      -6.0898      2.00000
    421      -6.0119      2.00000
    422      -5.9958      2.00000
    423      -5.9697      2.00000
    424      -5.9379      2.00000
    425      -5.9156      2.00000
    426      -5.8808      2.00000
    427      -5.8657      2.00000
    428      -5.8437      2.00000
    429      -5.8168      2.00000
    430      -5.7885      2.00000
    431      -5.7677      2.00000
    432      -5.7385      2.00000
    433      -5.6976      2.00000
    434      -5.6586      2.00000
    435      -5.6237      2.00000
    436      -5.5989      2.00000
    437      -5.5713      2.00000
    438      -5.5271      2.00000
    439      -5.4970      2.00000
    440      -5.4665      2.00000
    441      -5.4216      2.00000
    442      -5.3518      2.00000
    443      -5.3362      2.00000
    444      -5.2935      2.00000
    445      -5.2747      2.00000
    446      -5.2329      2.00000
    447      -5.1951      2.00000
    448      -5.1344      2.00000
    449      -5.1065      2.00000
    450      -5.0468      2.00000
    451      -4.9989      2.00000
    452      -4.9440      2.00000
    453      -4.9260      2.00000
    454      -4.8578      2.00000
    455      -4.8033      2.00000
    456      -4.7094      2.00000
    457      -4.6343      2.00000
    458      -4.6069      2.00000
    459      -4.5994      2.00000
    460      -4.5529      2.00000
    461      -4.5316      2.00000
    462      -4.5032      2.00000
    463      -4.4940      2.00000
    464      -4.4478      2.00000
    465      -4.4015      2.00000
    466      -4.3708      2.00000
    467      -4.3120      2.00000
    468      -4.2968      2.00000
    469      -4.2758      2.00000
    470      -4.2214      2.00000
    471      -4.1027      2.00000
    472      -4.0863      2.00000
    473      -4.0426      2.00000
    474      -4.0151      2.00000
    475      -3.9849      2.00000
    476      -3.9601      2.00000
    477      -3.9297      2.00000
    478      -3.8683      2.00000
    479      -3.8603      2.00000
    480      -3.7982      2.00000
    481      -3.7817      2.00000
    482      -3.7549      2.00000
    483      -3.7127      2.00000
    484      -3.6721      2.00000
    485      -3.6526      2.00000
    486      -3.6136      2.00000
    487      -3.6047      2.00000
    488      -3.5458      2.00000
    489      -3.4980      2.00000
    490      -3.4662      2.00000
    491      -3.4582      2.00000
    492      -3.4480      2.00000
    493      -3.4034      2.00000
    494      -3.3946      2.00000
    495      -3.3699      2.00000
    496      -3.3367      2.00000
    497      -3.3071      2.00000
    498      -3.2995      2.00000
    499      -3.2557      2.00000
    500      -3.2194      2.00000
    501      -3.2007      2.00000
    502      -3.1571      2.00000
    503      -3.1067      2.00000
    504      -3.0723      2.00000
    505      -3.0463      2.00000
    506      -2.9941      2.00000
    507      -2.9748      2.00000
    508      -2.9567      2.00000
    509      -2.9375      2.00000
    510      -2.9101      2.00000
    511      -2.8806      2.00000
    512      -2.8576      2.00000
    513      -2.8313      2.00000
    514      -2.7922      2.00000
    515      -2.7535      2.00000
    516      -2.7239      2.00000
    517      -2.7222      2.00000
    518      -2.6863      2.00000
    519      -2.6779      2.00000
    520      -2.6547      2.00000
    521      -2.6403      2.00000
    522      -2.6323      2.00000
    523      -2.5875      2.00000
    524      -2.5670      2.00000
    525      -2.5494      2.00000
    526      -2.5207      2.00000
    527      -2.5043      2.00000
    528      -2.4704      2.00000
    529      -2.4366      2.00000
    530      -2.4238      2.00000
    531      -2.3969      2.00000
    532      -2.3892      2.00000
    533      -2.3579      2.00000
    534      -2.3434      2.00000
    535      -2.3121      2.00000
    536      -2.3090      2.00000
    537      -2.2774      2.00000
    538      -2.2471      2.00000
    539      -2.2304      2.00000
    540      -2.2045      2.00000
    541      -2.1986      2.00000
    542      -2.1822      2.00000
    543      -2.1684      2.00000
    544      -2.1555      2.00000
    545      -2.1230      2.00000
    546      -2.0985      2.00000
    547      -2.0835      2.00000
    548      -2.0674      2.00000
    549      -2.0223      2.00000
    550      -2.0025      2.00000
    551      -1.9505      2.00000
    552      -1.9462      2.00000
    553      -1.9184      2.00000
    554      -1.8820      2.00000
    555      -1.8358      2.00000
    556      -1.8272      2.00000
    557      -1.8103      2.00000
    558      -1.7543      2.00000
    559      -1.7426      2.00000
    560      -1.7244      2.00000
    561      -1.7011      2.00000
    562      -1.6695      2.00000
    563      -1.6551      2.00000
    564      -1.6365      2.00000
    565      -1.6208      2.00000
    566      -1.5997      2.00000
    567      -1.5722      2.00000
    568      -1.5416      2.00000
    569      -1.5352      2.00000
    570      -1.5304      2.00000
    571      -1.5045      2.00000
    572      -1.4853      2.00000
    573      -1.4754      2.00000
    574      -1.4555      2.00000
    575      -1.4224      2.00000
    576      -1.3947      2.00000
    577      -1.3663      2.00000
    578      -1.3594      2.00000
    579      -1.3271      2.00000
    580      -1.3009      2.00000
    581      -1.2824      2.00000
    582      -1.2544      2.00000
    583      -1.2446      2.00000
    584      -1.2353      2.00000
    585      -1.2124      2.00000
    586      -1.1840      2.00000
    587      -1.1644      2.00000
    588      -1.1398      2.00000
    589      -1.1231      2.00000
    590      -1.1092      2.00000
    591      -1.0820      2.00000
    592      -1.0568      2.00000
    593      -1.0485      2.00000
    594      -1.0341      2.00000
    595      -0.9987      2.00000
    596      -0.9956      2.00000
    597      -0.9788      2.00000
    598      -0.9653      2.00000
    599      -0.9210      2.00000
    600      -0.8915      2.00000
    601      -0.8601      2.00000
    602      -0.8465      2.00000
    603      -0.8387      2.00000
    604      -0.8035      2.00000
    605      -0.7993      2.00000
    606      -0.7579      2.00000
    607      -0.7523      2.00000
    608      -0.7389      2.00000
    609      -0.7250      2.00000
    610      -0.7064      2.00000
    611      -0.6812      2.00000
    612      -0.6710      2.00000
    613      -0.6537      2.00000
    614      -0.6197      2.00000
    615      -0.6082      2.00000
    616      -0.5952      2.00000
    617      -0.5860      2.00000
    618      -0.5650      2.00000
    619      -0.5455      2.00000
    620      -0.5301      2.00000
    621      -0.5258      2.00000
    622      -0.5138      2.00000
    623      -0.4994      2.00000
    624      -0.4817      2.00000
    625      -0.4636      2.00000
    626      -0.4484      2.00000
    627      -0.4399      2.00000
    628      -0.4286      2.00000
    629      -0.4117      2.00000
    630      -0.3909      2.00000
    631      -0.3674      2.00000
    632      -0.3584      2.00000
    633      -0.3262      2.00000
    634      -0.3182      2.00000
    635      -0.3014      2.00000
    636      -0.2976      2.00000
    637      -0.2785      2.00000
    638      -0.2714      2.00000
    639      -0.2550      2.00000
    640      -0.2381      2.00000
    641      -0.2274      2.00000
    642      -0.2125      2.00000
    643      -0.2047      2.00000
    644      -0.1969      2.00000
    645      -0.1828      2.00000
    646      -0.1611      2.00000
    647      -0.1511      2.00000
    648      -0.1475      2.00000
    649      -0.1274      2.00000
    650      -0.1160      2.00000
    651      -0.1153      2.00000
    652      -0.0898      2.00000
    653      -0.0831      2.00000
    654      -0.0722      2.00000
    655      -0.0525      2.00000
    656      -0.0501      2.00000
    657      -0.0340      2.00000
    658      -0.0175      2.00000
    659      -0.0020      2.00000
    660       0.0064      2.00000
    661       0.0127      2.00000
    662       0.0240      2.00000
    663       0.0402      2.00000
    664       0.0424      2.00000
    665       0.0735      2.00000
    666       0.0942      2.00000
    667       0.1154      2.00000
    668       0.1252      2.00000
    669       0.1357      2.00000
    670       0.1414      2.00000
    671       0.1624      2.00000
    672       0.1764      2.00000
    673       0.1979      2.00000
    674       0.2088      2.00000
    675       0.2143      2.00000
    676       0.2369      2.00000
    677       0.2515      2.00000
    678       0.2827      2.00000
    679       0.2934      2.00000
    680       0.3245      2.00000
    681       0.3655      2.00000
    682       0.3879      2.00000
    683       0.3917      2.00000
    684       0.4047      2.00000
    685       0.4412      2.00000
    686       0.4531      2.00000
    687       0.4802      2.00000
    688       0.4870      2.00000
    689       0.5474      2.00000
    690       0.5576      2.00000
    691       0.6078      2.00000
    692       0.6188      2.00000
    693       0.6343      2.00000
    694       0.8427      2.00000
    695       1.0314      2.00000
    696       1.2487      2.00000
    697       1.3541      2.00000
    698       1.6371      2.00000
    699       1.6819      2.00000
    700       6.2777      0.00000
    701       7.1575      0.00000
    702       7.3295      0.00000
[...]
      4.90529      1.64985      0.02687        -0.003088     -0.000918      0.005026
      4.07124      0.01519      2.96646         0.006266      0.003399      0.001478
      7.78967      0.01519     -0.09019        -0.006266      0.003399     -0.001478
      1.02508      6.05416      4.31436         0.000173      0.000264      0.002372
      7.85381      6.05051     -0.17197         0.008754     -0.002061     -0.001665
      7.83394      3.09352      5.57598         0.002632      0.003372     -0.004894
     10.83582      6.05416     -1.43810        -0.000173      0.000264     -0.002372
      4.90615      4.54718      5.77481         0.001518      0.001713      0.003785
      6.95475      4.54718      8.67924        -0.001518      0.001713     -0.003785
      1.91666      4.54879      7.10361        -0.003279      0.001099     -0.002384
      7.83103      6.00963      5.59718         0.005382      0.002263      0.011513
      4.02987      6.00963      8.85687        -0.005382      0.002263     -0.011513
      1.06465     12.13056     10.12174         0.006961      0.000503      0.002531
     10.79625     12.13056      4.33231        -0.006961      0.000503     -0.002531
      9.96676      1.52348      7.31713        -0.001062      0.000342      0.000000
      1.89414      1.52348      7.13692         0.001062      0.000342     -0.000000
      4.02696      3.09352      8.87807        -0.002632      0.003372      0.004894
      1.05849      9.10068      4.32892        -0.002543     -0.002549      0.001801
     10.80241      9.10068     -1.45265         0.002543     -0.002549     -0.001801
      9.96327     10.62002      1.52133        -0.003951      0.003107     -0.002188
      1.89763     10.62002      1.35494         0.003951      0.003107      0.002188
      6.97338     10.61255      2.87556        -0.006282      0.016833     -0.001589
      4.88752     10.61255      0.00071         0.006282      0.016833      0.001589
      4.06603      9.08489      2.97623         0.008178      0.000692      0.000337
      7.79487      9.08489     -0.09996        -0.008178      0.000692     -0.000337
      1.04991      9.10136     10.12220        -0.007176     -0.000543     -0.003240
     10.81100      9.10136      4.33185         0.007176     -0.000543      0.003240
      9.95909     10.61827      7.31060        -0.002582     -0.000140     -0.002910
      1.90181     10.61827      7.14345         0.002582     -0.000140      0.002910
      6.99474     10.61673      8.66162        -0.006863      0.004155     -0.003486
      4.86616     10.61673      5.79243         0.006863      0.004155      0.003486
      4.04381      9.07865      8.80116        -0.000474     -0.001489      0.000750
      7.81709      9.07865      5.65289         0.000474     -0.001489     -0.000750
      7.99761      4.55340      7.15459         0.003331     -0.001443      0.001937
      3.86329      4.55340      7.29946        -0.003331     -0.001443     -0.001937
      5.95601      3.01439      8.63533        -0.009001      0.007867      0.005231
      1.93146      6.08376      0.13390         0.002915      0.004323      0.002226
      5.98239      6.01590      0.11423        -0.002613      0.002281     -0.001290
     11.83405      7.59005     -1.42071        -0.001688      0.009733      0.002591
      5.95674      6.07683      8.63236         0.002773     -0.000735     -0.000331
      5.90416      6.07683      5.82169        -0.002773     -0.000735      0.000331
      3.99639      7.57000     10.00281        -0.013789     -0.007285      0.002027
      7.86451      7.57000      4.45125         0.013789     -0.007285     -0.002027
      2.00787      6.09647      8.50278        -0.006782     -0.001657     -0.010363
      9.85303      6.09647      5.95127         0.006782     -0.001657      0.010363
      0.04356      7.57826     10.09532         0.003604      0.000900     -0.000618
     11.81734      7.57826      4.35873        -0.003604      0.000900      0.000618
      9.94776      6.07591      8.54506         0.000652     -0.000779      0.004069
      1.91314      6.07591      5.90899        -0.000652     -0.000779     -0.004069
      8.00223      7.60786      1.30075         0.009331     -0.003984     -0.000773
      3.85867      7.60786      1.57552        -0.009331     -0.003984      0.000773
      5.87851      6.01590      2.76204         0.002613      0.002281      0.001290
      5.90489      3.01439      5.81873         0.009001      0.007867     -0.005231
      3.97000      7.59145      4.21817        -0.003170      0.000105     -0.000483
      7.89090      7.59145     -1.34190         0.003170      0.000105      0.000483
      2.02594      6.08931      2.75260        -0.003691      0.002195     -0.002832
      9.83496      6.08931      0.12366         0.003691      0.002195      0.002832
      0.02685      7.59005      4.29697         0.001688      0.009733     -0.002591
      9.92944      6.08376      2.74237        -0.002915      0.004323     -0.002226
      3.84043      4.56109      9.92255        -0.022669      0.002189     -0.002708
      7.93968      4.55863      1.17266         0.006950      0.001381     -0.000378
      2.00961      2.98704      8.51085        -0.004248     -0.005412     -0.000369
      2.04584     12.12218      8.54669         0.006944     -0.001619      0.004223
      9.81506     12.12218      5.90736        -0.006944     -0.001619     -0.004223
      0.04075      1.50254     10.09498         0.000269     -0.004093      0.002391
     11.82015      1.50254      4.35908        -0.000269     -0.004093     -0.002391
      9.91862     12.12818      8.52292        -0.007222     -0.002243      0.005625
      1.94228     12.12818      5.93113         0.007222     -0.002243     -0.005625
      7.99150      1.48844      1.30143        -0.003468      0.009070     -0.003031
      3.86940      1.48844      1.57483         0.003468      0.009070      0.003031
      7.85953      1.51575      4.44734         0.002389      0.005607      0.002311
      5.98689      0.03080      2.84785         0.007769     -0.004654     -0.000238
      3.97635      1.49517      4.21445         0.002116      0.005440      0.004768
      7.88455      1.49517     -1.33818        -0.002116      0.005440     -0.004768
      2.04950     12.11887      2.75121         0.009170     -0.001162      0.003288
      9.81140     12.11887      0.12506        -0.009170     -0.001162     -0.003288
      0.02662      1.49402      4.29617        -0.003046     -0.003384     -0.000161
     11.83428      1.49402     -1.41990         0.003046     -0.003384      0.000161
      9.92370     12.12029      2.73617        -0.010531     -0.002501     -0.000084
      1.93720     12.12029      0.14010         0.010531     -0.002501      0.000084
      5.87401      0.03080      0.02842        -0.007769     -0.004654      0.000238
      4.00137      1.51575     10.00671        -0.002389      0.005607     -0.002311
      5.89263     12.12895      5.82571        -0.001190      0.002322      0.001486
      5.96827     12.12895      8.62834         0.001190      0.002322     -0.001486
      9.85129      2.98704      5.94321         0.004248     -0.005412      0.000369
      0.03340      4.55473     10.09180         0.005189     -0.004067      0.001997
     11.82750      4.55473      4.36225        -0.005189     -0.004067     -0.001997
      9.95463      3.01622      8.54263         0.008169     -0.003056      0.003863
      1.90628      3.01622      5.91143        -0.008169     -0.003056     -0.003863
      3.87724      7.59571      7.38120        -0.004046     -0.005073     -0.001930
      3.92122      4.55863      1.70361        -0.006950      0.001381      0.000378
      5.88227      3.10647      2.76898        -0.003417      0.014084      0.003099
      5.97863      3.10647      0.10729         0.003417      0.014084     -0.003099
      3.89926      4.55970      4.27290        -0.006844      0.001879      0.000191
      7.96164      4.55970     -1.39663         0.006844      0.001879     -0.000191
      2.02814      3.00048      2.75877        -0.004396     -0.004090      0.000050
      9.83276      3.00048      0.11750         0.004396     -0.004090     -0.000050
     11.84621      4.55601      1.39170        -0.004649     -0.005505      0.002427
      0.01469      4.55601      1.48457         0.004649     -0.005505     -0.002427
      9.93743      3.00586      2.73969        -0.001597     -0.003465     -0.000412
      1.92347      3.00586      0.13658         0.001597     -0.003465      0.000412
      7.98265      1.49060      7.07359        -0.000588      0.001239     -0.002360
      3.87825      1.49060      7.38047         0.000588      0.001239      0.002360
      8.02047      4.56109      4.53150         0.022669      0.002189      0.002708
      7.98366      7.59571      7.07285         0.004046     -0.005073      0.001930
      1.92781      9.11796      0.14091        -0.007077      0.006645      0.008091
      9.93309      9.11796      2.73536         0.007077      0.006645     -0.008091
     11.82182     10.62510     -1.42506         0.004563      0.003906      0.002382
      0.03908     10.62510      4.30133        -0.004563      0.003906     -0.002382
      9.81438      9.12092      0.11991        -0.005727      0.010933     -0.004673
      2.04652      9.12092      2.75636         0.005727      0.010933      0.004673
      7.85859     10.62362     -1.30779        -0.024188     -0.004729      0.006403
      4.00231     10.62362      4.18406         0.024188     -0.004729     -0.006403
      5.87439      9.05660      0.02491        -0.004197     -0.023803     -0.000860
      5.98651      9.05660      2.85136         0.004197     -0.023803      0.000860
      3.89991     10.62020      1.58148         0.010277     -0.002911      0.001680
      7.96099     10.62020      1.29479        -0.010277     -0.002911     -0.001680
      1.93209      9.10321      5.93337        -0.008907      0.002945      0.003267
      9.92881      9.10321      8.52069         0.008907      0.002945     -0.003267
     11.83254     10.62395      4.36846         0.001955      0.001265      0.003549
      0.02836     10.62395     10.08559        -0.001955      0.001265     -0.003549
      9.81655      9.11076      5.90376        -0.000939      0.003390     -0.008635
      2.04435      9.11076      8.55030         0.000939      0.003390      0.008635
      7.86741     10.62292      4.47279        -0.011897     -0.000400      0.000904
      3.99349     10.62292      9.98127         0.011897     -0.000400     -0.000904
      5.89215      9.10100      5.82405         0.006602     -0.011564      0.000775
      5.96875      9.10100      8.63001        -0.006602     -0.011564     -0.000775
      3.88516     10.62001      7.37028         0.003230     -0.003414      0.000313
      7.97574     10.62001      7.08377        -0.003230     -0.003414     -0.000313
 -----------------------------------------------------------------------------------
    total drift:                                0.000000     -0.316577     -0.000170


--------------------------------------------------------------------------------------------------------



  FREE ENERGIE OF THE ION-ELECTRON SYSTEM (eV)
  ---------------------------------------------------
  free  energy   TOTEN  =     -1489.44115728 eV

  energy  without entropy=    -1489.44115728  energy(sigma->0) =    -1489.44115728
 
 d Force = 0.6343696E-05[-0.191E-04, 0.317E-04]  d Energy = 0.1326769E-04-0.692E-05
 d Force =-0.2948473E-01[-0.297E-01,-0.293E-01]  d Ewald  =-0.2948753E-01 0.280E-05


--------------------------------------------------------------------------------------------------------


    POTLOK:  cpu time    0.4004: real time    0.4005


--------------------------------------------------------------------------------------------------------




--------------------------------------------------------------------------------------------------------


  
 reached required accuracy - stopping structural energy minimisation
 writing wavefunctions
     LOOP+:  cpu time  578.3075: real time  578.8267
    4ORBIT:  cpu time    0.0000: real time    0.0000
 


 total charge     
 
# of ion     s       p       d       tot
----------------------------------------
  1        0.649   0.813  10.270  11.733
  2        0.760   1.025  10.313  12.099
  3        0.759   1.018  10.308  12.085
  4        0.759   1.018  10.308  12.085
  5        0.660   0.837  10.277  11.773
  6        0.660   0.837  10.277  11.774
  7        0.756   1.014  10.309  12.079
  8        0.756   1.014  10.309  12.079
  9        0.658   0.824  10.268  11.750
 10        0.755   1.006  10.304  12.064
 11        0.755   1.006  10.304  12.064
 12        0.661   0.840  10.279  11.781
 13        0.659   0.834  10.275  11.768
 14        0.661   0.840  10.279  11.781
 15        0.758   1.014  10.306  12.078
 16        0.758   1.014  10.306  12.078
 17        0.653   0.804  10.253  11.711
 18        0.653   0.804  10.253  11.711
 19        0.675   0.858  10.284  11.817
 20        0.675   0.858  10.284  11.817
 21        0.747   0.979  10.289  12.015
 22        0.677   0.869  10.293  11.839
 23        0.747   0.979  10.289  12.015
 24        0.659   0.834  10.275  11.768
 25        0.760   1.021  10.310  12.091
 26        0.760   1.021  10.310  12.091
 27        0.760   1.025  10.313  12.099
 28        0.661   0.844  10.282  11.787
 29        0.661   0.844  10.282  11.787
 30        0.745   0.971  10.284  12.000
 31        0.745   0.971  10.284  12.000
 32        0.659   0.834  10.275  11.769
 33        0.659   0.834  10.275  11.769
 34        0.760   1.024  10.312  12.095
 35        0.677   0.869  10.293  11.839
 36        0.689   0.850  10.272  11.811
 37        0.760   1.024  10.312  12.095
 38        0.766   1.041  10.321  12.127
 39        0.766   1.041  10.321  12.127
 40        0.658   0.824  10.268  11.750
 41        0.690   0.860  10.280  11.830
 42        0.690   0.860  10.280  11.830
 43        0.762   1.031  10.317  12.110
 44        0.762   1.031  10.317  12.110
 45        0.660   0.841  10.280  11.781
 46        0.660   0.841  10.280  11.781
 47        0.689   0.850  10.272  11.811
 48        0.758   1.016  10.307  12.081
 49        0.758   1.016  10.307  12.081
 50        0.659   0.838  10.278  11.775
 51        0.659   0.838  10.278  11.775
 52        0.753   0.996  10.296  12.045
 53        0.753   0.996  10.296  12.045
 54        0.657   0.823  10.267  11.748
 55        0.657   0.823  10.267  11.748
 56        0.760   1.021  10.310  12.092
 57        0.760   1.021  10.310  12.092
 58        0.659   0.837  10.277  11.773
 59        0.659   0.837  10.277  11.773
 60        0.759   1.020  10.309  12.089
 61        0.759   1.020  10.309  12.089
 62        0.657   0.824  10.268  11.749
 63        0.657   0.824  10.268  11.749
 64        1.586   3.571   0.000   5.157
 65        1.586   3.571   0.000   5.157
 66        1.578   3.612   0.000   5.191
 67        1.580   3.596   0.000   5.175
 68        1.580   3.598   0.000   5.178
 69        1.578   3.618   0.000   5.196
 70        1.579   3.616   0.000   5.195
 71        1.579   3.616   0.000   5.195
 72        1.580   3.585   0.000   5.164
 73        1.580   3.585   0.000   5.164
 74        1.586   3.580   0.000   5.166
 75        1.586   3.580   0.000   5.166
 76        1.579   3.616   0.000   5.194
 77        1.579   3.616   0.000   5.194
 78        1.580   3.591   0.000   5.171
 79        1.580   3.591   0.000   5.171
 80        1.584   3.577   0.000   5.161
 81        1.584   3.577   0.000   5.161
 82        1.580   3.598   0.000   5.178
 83        1.578   3.612   0.000   5.191
 84        1.580   3.584   0.000   5.165
 85        1.580   3.584   0.000   5.165
 86        1.585   3.575   0.000   5.160
 87        1.585   3.575   0.000   5.160
 88        1.578   3.618   0.000   5.196
 89        1.580   3.596   0.000   5.175
 90        1.589   3.546   0.000   5.134
 91        1.586   3.574   0.000   5.160
 92        1.586   3.576   0.000   5.161
 93        1.585   3.578   0.000   5.163
 94        1.585   3.578   0.000   5.163
 95        1.579   3.617   0.000   5.196
 96        1.579   3.617   0.000   5.196
 97        1.581   3.588   0.000   5.168
 98        1.581   3.588   0.000   5.168
 99        1.584   3.577   0.000   5.161
100        1.584   3.577   0.000   5.161
101        1.579   3.584   0.000   5.163
102        1.577   3.605   0.000   5.182
103        1.581   3.584   0.000   5.165
104        1.581   3.584   0.000   5.165
105        1.585   3.579   0.000   5.163
106        1.585   3.579   0.000   5.163
107        1.579   3.619   0.000   5.197
108        1.579   3.619   0.000   5.197
109        1.581   3.592   0.000   5.172
110        1.581   3.592   0.000   5.172
111        1.577   3.605   0.000   5.182
112        1.579   3.584   0.000   5.163
113        1.579   3.620   0.000   5.198
114        1.579   3.620   0.000   5.198
115        1.586   3.576   0.000   5.161
116        1.579   3.610   0.000   5.189
117        1.579   3.610   0.000   5.189
118        1.580   3.588   0.000   5.168
119        1.580   3.588   0.000   5.168
120        1.584   3.569   0.000   5.153
121        1.586   3.574   0.000   5.160
122        1.580   3.591   0.000   5.171
123        1.580   3.591   0.000   5.171
124        1.583   3.594   0.000   5.177
125        1.583   3.594   0.000   5.177
126        1.584   3.571   0.000   5.155
127        1.584   3.571   0.000   5.155
128        1.580   3.600   0.000   5.180
129        1.580   3.600   0.000   5.180
130        1.579   3.593   0.000   5.172
131        1.579   3.593   0.000   5.172
132        1.585   3.571   0.000   5.155
133        1.585   3.571   0.000   5.155
134        1.589   3.546   0.000   5.134
135        1.584   3.569   0.000   5.153
136        1.580   3.588   0.000   5.168
137        1.580   3.588   0.000   5.168
138        1.579   3.616   0.000   5.195
139        1.579   3.616   0.000   5.195
140        1.584   3.574   0.000   5.158
141        1.584   3.574   0.000   5.158
142        1.581   3.580   0.000   5.160
143        1.581   3.580   0.000   5.160
144        1.577   3.601   0.000   5.178
145        1.577   3.601   0.000   5.178
146        1.584   3.575   0.000   5.160
147        1.584   3.575   0.000   5.160
148        1.580   3.584   0.000   5.164
149        1.580   3.584   0.000   5.164
150        1.578   3.618   0.000   5.196
151        1.578   3.618   0.000   5.196
152        1.584   3.573   0.000   5.157
153        1.584   3.573   0.000   5.157
154        1.580   3.584   0.000   5.164
155        1.580   3.584   0.000   5.164
156        1.578   3.615   0.000   5.193
157        1.578   3.615   0.000   5.193
158        1.585   3.572   0.000   5.157
159        1.585   3.572   0.000   5.157
------------------------------------------------
tot      196.447 402.687 648.2791247.413
 

 total amount of memory used by VASP on root node    90413. kBytes
========================================================================

   base      :      30000. kBytes
   nonlr-proj:      42210. kBytes
   fftplans  :       1403. kBytes
   grid      :       9513. kBytes
   one-center:       2472. kBytes
   HF        :        129. kBytes
   wavefun   :       4686. kBytes
 
  
  
 General timing and accounting informations for this job:
 ========================================================
  
                  Total CPU time used (sec):     1892.321
                            User time (sec):     1874.971
                          System time (sec):       17.350
                         Elapsed time (sec):     1898.122
  
                   Maximum memory used (kb):      615140.
                   Average memory used (kb):           0.
  
                          Minor page faults:      3611850
                          Major page faults:            0
                 Voluntary context switches:        21710
