 vasp.5.4.1 05Feb16 (build May 04 2017 01:30:51) complex                        
  
 executed on      LLNL_Quartz_ifc date 2018.08.14  17:21:54
 running on  288 total cores
 distrk:  each k-point on  288 cores,    1 groups
 distr:  one band on NCORES_PER_BAND=   1 cores,  288 groups


--------------------------------------------------------------------------------------------------------


 INCAR:
 POTCAR:   PAW_PBE Ga_d 06Sep2000                 
 POTCAR:   PAW_PBE O 08Apr2002                    

 ----------------------------------------------------------------------------- 
|                                                                             |
|           W    W    AA    RRRRR   N    N  II  N    N   GGGG   !!!           |
|           W    W   A  A   R    R  NN   N  II  NN   N  G    G  !!!           |
|           W    W  A    A  R    R  N N  N  II  N N  N  G       !!!           |
|           W WW W  AAAAAA  RRRRR   N  N N  II  N  N N  G  GGG   !            |
|           WW  WW  A    A  R   R   N   NN  II  N   NN  G    G                |
|           W    W  A    A  R    R  N    N  II  N    N   GGGG   !!!           |
|                                                                             |
|      For optimal performance we recommend to set                            |
|        NCORE= 4 - approx SQRT( number of cores)                             |
|      NCORE specifies how many cores store one orbital (NPAR=cpu/NCORE).     |
|      This setting can  greatly improve the performance of VASP for DFT.     |
|      The default, NPAR=number of cores might be grossly inefficient         |
|      on modern multi-core architectures or massively parallel machines.     |
|      Do your own testing !!!!                                               |
|      Unfortunately you need to use the default for GW and RPA calculations. |
|      (for HF NCORE is supported but not extensively tested yet)             |
|                                                                             |
 ----------------------------------------------------------------------------- 

 POTCAR:   PAW_PBE Ga_d 06Sep2000                 
   VRHFIN =Ga: s2p1                                                             
   LEXCH  = PE                                                                  
   EATOM  =  2149.0616 eV,  157.9516 Ry                                         
                                                                                
   TITEL  = PAW_PBE Ga_d 06Sep2000                                              
   LULTRA =        F    use ultrasoft PP ?                                      
   IUNSCR =        1    unscreen: 0-lin 1-nonlin 2-no                           
   RPACOR =    2.000    partial core radius                                     
   POMASS =   69.723; ZVAL   =   13.000    mass and valenz                      
   RCORE  =    2.300    outmost cutoff radius                                   
   RWIGS  =    2.300; RWIGS  =    1.217    wigner-seitz radius (au A)           
   ENMAX  =  282.697; ENMIN  =  212.022 eV                                      
   ICORE  =        3    local potential                                         
   LCOR   =        T    correct aug charges                                     
   LPAW   =        T    paw PP                                                  
   EAUG   =  490.690                                                            
   DEXC   =    -.001                                                            
   RMAX   =    2.742    core radius for proj-oper                               
   RAUG   =    1.300    factor for augmentation sphere                          
   RDEP   =    2.413    radius for radial grids                                 
   QCUT   =   -4.558; QGAM   =    9.117    optimization parameters              
                                                                                
   Description                                                                  
     l     E      TYP  RCUT    TYP  RCUT                                        
     2   .000     23  2.300                                                     
     2  -.400     23  2.300                                                     
     0   .000     23  2.300                                                     
     0   .000     23  2.300                                                     
     1   .000     23  2.300                                                     
     1   .000     23  2.300                                                     
     3  -.100      7  2.300                                                     
  local pseudopotential read in
  partial core-charges read in
  atomic valenz-charges read in
  non local Contribution for L=           2  read in
    real space projection operators read in
  non local Contribution for L=           2  read in
    real space projection operators read in
  non local Contribution for L=           0  read in
    real space projection operators read in
  non local Contribution for L=           0  read in
    real space projection operators read in
  non local Contribution for L=           1  read in
    real space projection operators read in
  non local Contribution for L=           1  read in
    real space projection operators read in
    PAW grid and wavefunctions read in
 
   number of l-projection  operators is LMAX  =           6
   number of lm-projection operators is LMMAX =          18
 
 POTCAR:   PAW_PBE O 08Apr2002                    
   VRHFIN =O: s2p4                                                              
   LEXCH  = PE                                                                  
   EATOM  =   432.3788 eV,   31.7789 Ry                                         
                                                                                
   TITEL  = PAW_PBE O 08Apr2002                                                 
   LULTRA =        F    use ultrasoft PP ?                                      
   IUNSCR =        0    unscreen: 0-lin 1-nonlin 2-no                           
   RPACOR =     .000    partial core radius                                     
   POMASS =   16.000; ZVAL   =    6.000    mass and valenz                      
   RCORE  =    1.520    outmost cutoff radius                                   
   RWIGS  =    1.550; RWIGS  =     .820    wigner-seitz radius (au A)           
   ENMAX  =  400.000; ENMIN  =  300.000 eV                                      
   ICORE  =        2    local potential                                         
   LCOR   =        T    correct aug charges                                     
   LPAW   =        T    paw PP                                                  
   EAUG   =  605.392                                                            
   DEXC   =     .000                                                            
   RMAX   =    2.264    core radius for proj-oper                               
   RAUG   =    1.300    factor for augmentation sphere                          
   RDEP   =    1.550    radius for radial grids                                 
   QCUT   =   -5.520; QGAM   =   11.041    optimization parameters              
                                                                                
   Description                                                                  
     l     E      TYP  RCUT    TYP  RCUT                                        
     0   .000     23  1.200                                                     
     0  -.700     23  1.200                                                     
     1   .000     23  1.520                                                     
     1   .600     23  1.520                                                     
     2   .000      7  1.500                                                     
  local pseudopotential read in
  atomic valenz-charges read in
  non local Contribution for L=           0  read in
    real space projection operators read in
  non local Contribution for L=           0  read in
    real space projection operators read in
  non local Contribution for L=           1  read in
    real space projection operators read in
  non local Contribution for L=           1  read in
    real space projection operators read in
    PAW grid and wavefunctions read in
 
   number of l-projection  operators is LMAX  =           4
   number of lm-projection operators is LMMAX =           8
 
 Optimization of the real space projectors (new method)

 maximal supplied QI-value         = 16.25
 optimisation between [QCUT,QGAM] = [ 10.24, 20.48] = [ 29.35,117.42] Ry 
 Optimized for a Real-space Cutoff    1.38 Angstroem

   l    n(q)    QCUT    max X(q) W(low)/X(q) W(high)/X(q)  e(spline) 
   2      7    10.239     6.328    0.33E-04    0.68E-04    0.30E-07
   2      7    10.239     9.625    0.20E-03    0.23E-03    0.80E-07
   0      8    10.239     9.711    0.17E-04    0.17E-04    0.13E-07
   0      8    10.239    32.764    0.56E-04    0.14E-03    0.62E-07
   1      8    10.239     7.413    0.78E-04    0.28E-04    0.38E-07
   1      8    10.239    31.472    0.43E-03    0.30E-03    0.73E-07
 Optimization of the real space projectors (new method)

 maximal supplied QI-value         = 24.76
 optimisation between [QCUT,QGAM] = [ 10.15, 20.30] = [ 28.85,115.39] Ry 
 Optimized for a Real-space Cutoff    1.30 Angstroem

   l    n(q)    QCUT    max X(q) W(low)/X(q) W(high)/X(q)  e(spline) 
   0      8    10.150     4.192    0.55E-04    0.58E-04    0.78E-07
   0      8    10.150     8.473    0.46E-03    0.68E-03    0.23E-06
   1      7    10.150     2.474    0.11E-03    0.93E-04    0.33E-07
   1      7    10.150     3.912    0.46E-03    0.50E-03    0.15E-06
 PAW_PBE Ga_d 06Sep2000                 :
 energy of atom  1       EATOM=-2149.0616
 kinetic energy error for atom=    0.0101 (will be added to EATOM!!)
 PAW_PBE O 08Apr2002                    :
 energy of atom  2       EATOM= -432.3788
 kinetic energy error for atom=    0.1156 (will be added to EATOM!!)
 
 
 POSCAR: Ga  O                                   
  positions in direct lattice
  velocities in cartesian coordinates
 exchange correlation table for  LEXCH =        8
   RHO(1)=    0.500       N(1)  =     2000
   RHO(2)=  100.500       N(2)  =     4000
 


--------------------------------------------------------------------------------------------------------


 ion  position               nearest neighbor table
   1  0.501  0.376  0.498- 134 1.91 124 1.92  82 2.00 122 2.01  71 2.04  83 2.04  23 2.81  20 2.81
                            41 2.81  37 2.82
   2  0.091  1.000  0.396- 107 1.82  98 1.82 139 1.83 105 1.85
   3  0.412  0.614  0.602-  71 1.79  84 1.84 156 1.88 120 1.89
   4  0.590  0.624  0.898-  85 1.82  70 1.83 157 1.84 135 1.86
   5  0.160  0.625  0.655-  79 1.93 148 1.93  77 1.94 120 2.00  74 2.08 153 2.09
   6  0.841  0.626  0.845-  78 1.93  76 1.93 149 1.94 135 1.99  75 2.05 152 2.09
   7  0.909  0.501  0.605-  89 1.81  77 1.83 117 1.83  75 1.85
   8  0.088  0.501  0.894-  67 1.82 116 1.82  76 1.83  74 1.86
   9  0.841  0.375  0.848-  78 1.93 118 1.93 116 1.93  64 1.93  75 2.10 115 2.11
  10  0.911  0.249  0.605- 130 1.81  96 1.84 117 1.84 115 1.85
  11  0.087  0.249  0.894- 131 1.82 116 1.83  95 1.83  92 1.86
  12  0.840  0.625  0.343-  89 1.93  88 1.94 137 1.95  80 2.00  87 2.01 140 2.09
  13  0.657  0.001  0.654- 101 1.91 113 1.92 154 1.93  94 2.04 132 2.08 159 2.09
  14  0.159  0.626  0.155-  69 1.92  67 1.94 136 1.94  81 1.99  86 2.06 141 2.09
  15  0.086  0.250  0.394- 107 1.83 128 1.83 119 1.83 126 1.86
  16  0.913  0.249  0.106- 118 1.82 127 1.83 108 1.84 129 1.84
  17  0.833  0.375  0.348-  91 1.86  89 1.92 130 1.93 128 1.99  87 2.17 127 2.19
  18  0.159  0.375  0.152- 129 1.92 121 1.93  67 1.94 131 1.94  86 2.10 126 2.10
  19  0.414  0.375  0.106-  68 1.82 123 1.82 121 1.83  90 1.86
  20  0.337  0.249  0.342- 122 1.89 124 1.90 103 1.97 126 2.00 100 2.08 121 2.15   1 2.81
  21  0.661  0.255  0.160-  91 1.92 123 1.95 125 1.96 104 2.00 127 2.03  99 2.10  36 2.92
  22  0.412  0.625  0.105-  68 1.82 144 1.83  72 1.83  81 1.86
  23  0.337  0.501  0.341-  82 1.89 124 1.89  84 1.97  86 2.00  81 2.06 121 2.13   1 2.81
  24  0.589  0.614  0.398-  82 1.80  73 1.84  80 1.87 145 1.89
  25  0.342  1.000  0.842- 114 1.92 155 1.94 112 1.94  93 2.01 158 2.05 133 2.07
  26  0.413  0.136  0.602-  83 1.80 103 1.84 113 1.88 133 1.89
  27  0.591  0.125  0.898- 104 1.82  66 1.83 114 1.84 132 1.86
  28  0.909  1.000  0.104- 108 1.82  97 1.82 138 1.83 106 1.85
  29  0.840  0.125  0.343- 130 1.93 109 1.94 107 1.94  99 2.01 127 2.01 106 2.08
  30  0.159  0.124  0.156- 108 1.92 131 1.93 110 1.94 100 1.99 126 2.06 105 2.07
  31  0.588  0.136  0.398- 122 1.80 101 1.84  99 1.87 102 1.89
  32  0.411  0.125  0.105- 123 1.82 111 1.82 112 1.83 100 1.85
  33  0.343  0.001  0.346- 103 1.92 102 1.92 143 1.93 105 2.04 100 2.08 146 2.09
  34  0.659  0.001  0.158- 111 1.93 104 1.93 142 1.95 106 2.01  99 2.05 147 2.07
  35  0.087  0.500  0.394-  88 1.82 128 1.83  79 1.83  86 1.86
  36  0.661  0.495  0.160-  91 1.92  68 1.95 125 1.95  85 1.98  87 2.03  80 2.09  21 2.92
  37  0.661  0.250  0.659-  83 1.90 134 1.90 101 1.97 115 2.01 132 2.08  64 2.12   1 2.82
  38  0.912  0.501  0.106-  78 1.82  87 1.83 129 1.83  69 1.83
  39  0.586  0.375  0.893- 125 1.82  64 1.83  70 1.83  66 1.84
  40  0.155  0.375  0.649-  79 1.90 117 1.90 119 1.90  65 1.99  74 2.12  92 2.14
  41  0.661  0.501  0.661-  71 1.90 134 1.90  73 1.96  75 2.01 135 2.06  64 2.11   1 2.81
  42  0.341  0.504  0.847-  72 1.90  70 1.91  90 1.95  74 2.02 120 2.05  65 2.06
  43  0.091  0.999  0.896- 110 1.82  95 1.82 151 1.83  93 1.86
  44  0.910  0.000  0.604- 109 1.82  96 1.83 150 1.83  94 1.86
  45  0.841  0.124  0.844- 118 1.93  95 1.93  97 1.94 132 2.00 115 2.05  94 2.07
  46  0.161  0.125  0.655-  98 1.93 119 1.93  96 1.94 133 2.00  92 2.08  93 2.08
  47  0.341  0.246  0.848- 112 1.91  66 1.91  90 1.95  92 2.02 133 2.06  65 2.07
  48  0.090  0.751  0.396-  88 1.83 148 1.83 139 1.83 141 1.86
  49  0.911  0.751  0.104- 149 1.83  69 1.83 138 1.83 140 1.86
  50  0.840  0.875  0.344- 109 1.93 137 1.93 139 1.94 147 2.01 106 2.06 140 2.06
  51  0.161  0.875  0.158- 110 1.94 136 1.94 138 1.94 146 2.01 105 2.05 141 2.05
  52  0.587  0.875  0.395- 154 1.83 102 1.84 145 1.85 147 1.86
  53  0.410  0.875  0.103- 111 1.83 155 1.83 144 1.83 146 1.85
  54  0.343  0.749  0.347-  84 1.92 145 1.93 143 1.94 141 2.03  81 2.09 146 2.10
  55  0.659  0.749  0.157- 144 1.93  85 1.94 142 1.96 140 2.01  80 2.07 147 2.08
  56  0.089  0.751  0.896- 136 1.82  76 1.83 151 1.83 153 1.86
  57  0.911  0.750  0.604- 137 1.82  77 1.83 150 1.84 152 1.86
  58  0.839  0.875  0.842-  97 1.94 149 1.94 151 1.94 159 2.01  94 2.05 152 2.06
  59  0.159  0.875  0.656-  98 1.93 148 1.93 150 1.93 158 2.02  93 2.06 153 2.07
  60  0.590  0.875  0.897- 142 1.82 114 1.83 157 1.83 159 1.86
  61  0.413  0.875  0.604- 143 1.83 113 1.84 156 1.84 158 1.87
  62  0.341  0.751  0.843- 157 1.93 155 1.94  72 1.95 153 2.01 158 2.06 120 2.09
  63  0.657  0.749  0.653-  73 1.92 156 1.93 154 1.94 152 2.03 135 2.10 159 2.10
  64  0.678  0.375  0.790-  39 1.83   9 1.93  41 2.11  37 2.12
  65  0.319  0.375  0.728-  40 1.99  42 2.06  47 2.07
  66  0.502  0.248  0.871-  27 1.83  39 1.84  47 1.91
  67  0.162  0.501  0.051-   8 1.82  14 1.94  18 1.94
  68  0.497  0.501  0.127-  22 1.82  19 1.82  36 1.95
  69  0.998  0.627  0.127-  49 1.83  38 1.83  14 1.92
  70  0.502  0.501  0.871-   4 1.83  39 1.83  42 1.91
  71  0.502  0.496  0.622-   3 1.79  41 1.90   1 2.04
  72  0.335  0.627  0.948-  22 1.83  42 1.90  62 1.95
  73  0.669  0.625  0.554-  24 1.84  63 1.92  41 1.96
  74  0.172  0.500  0.780-   8 1.86  42 2.02   5 2.08  40 2.12
  75  0.830  0.501  0.722-   7 1.85  41 2.01   6 2.05   9 2.10
  76  0.003  0.626  0.872-   8 1.83  56 1.83   6 1.93
  77  0.998  0.625  0.629-   7 1.83  57 1.83   5 1.94
  78  0.840  0.502  0.949-  38 1.82   9 1.93   6 1.93
  79  0.161  0.500  0.551-  35 1.83  40 1.90   5 1.93
  80  0.672  0.625  0.282-  24 1.87  12 2.00  55 2.07  36 2.09
  81  0.326  0.626  0.217-  22 1.86  14 1.99  23 2.06  54 2.09
  82  0.496  0.497  0.379-  24 1.80  23 1.89   1 2.00
  83  0.501  0.256  0.622-  26 1.80  37 1.90   1 2.04
  84  0.330  0.626  0.447-   3 1.84  54 1.92  23 1.97
  85  0.664  0.624  0.055-   4 1.82  55 1.94  36 1.98
  86  0.169  0.501  0.278-  35 1.86  23 2.00  14 2.06  18 2.10
  87  0.831  0.506  0.220-  38 1.83  12 2.01  36 2.03  17 2.17
  88  0.003  0.626  0.372-  35 1.82  48 1.83  12 1.94
  89  0.838  0.502  0.448-   7 1.81  17 1.92  12 1.93
  90  0.337  0.376  0.946-  19 1.86  42 1.95  47 1.95
  91  0.681  0.375  0.271-  17 1.86  36 1.92  21 1.92
  92  0.172  0.249  0.781-  11 1.86  47 2.02  46 2.08  40 2.14
  93  0.173  1.000  0.780-  43 1.86  25 2.01  59 2.06  46 2.08
  94  0.827  0.999  0.719-  44 1.86  13 2.04  58 2.05  45 2.07
  95  0.003  0.123  0.871-  43 1.82  11 1.83  45 1.93
  96  0.998  0.124  0.629-  44 1.83  10 1.84  46 1.94
  97  0.835  0.999  0.947-  28 1.82  45 1.94  58 1.94
  98  0.164  0.999  0.553-   2 1.82  59 1.93  46 1.93
  99  0.672  0.125  0.282-  31 1.87  29 2.01  34 2.05  21 2.10
 100  0.326  0.124  0.218-  32 1.85  30 1.99  33 2.08  20 2.08
 101  0.667  0.124  0.554-  31 1.84  13 1.91  37 1.97
 102  0.504  0.003  0.373-  52 1.84  31 1.89  33 1.92
 103  0.331  0.123  0.448-  26 1.84  33 1.92  20 1.97
 104  0.664  0.125  0.055-  27 1.82  34 1.93  21 2.00
 105  0.173  0.999  0.280-   2 1.85  33 2.04  51 2.05  30 2.07
 106  0.827  0.999  0.220-  28 1.85  34 2.01  50 2.06  29 2.08
 107  0.003  0.123  0.372-   2 1.82  15 1.83  29 1.94
 108  0.998  0.122  0.127-  28 1.82  16 1.84  30 1.92
 109  0.837  0.999  0.447-  44 1.82  50 1.93  29 1.94
 110  0.165  0.999  0.053-  43 1.82  30 1.94  51 1.94
 111  0.497  1.000  0.128-  32 1.82  53 1.83  34 1.93
 112  0.335  0.122  0.948-  32 1.83  47 1.91  25 1.94
 113  0.495  0.003  0.628-  61 1.84  26 1.88  13 1.92
 114  0.504  1.000  0.873-  60 1.83  27 1.84  25 1.92
 115  0.830  0.248  0.721-  10 1.85  37 2.01  45 2.05   9 2.11
 116  0.003  0.375  0.872-   8 1.82  11 1.83   9 1.93
 117  0.995  0.376  0.629-   7 1.83  10 1.84  40 1.90
 118  0.840  0.248  0.949-  16 1.82  45 1.93   9 1.93
 119  0.160  0.250  0.551-  15 1.83  40 1.90  46 1.93
 120  0.328  0.624  0.719-   3 1.89   5 2.00  42 2.05  62 2.09
 121  0.321  0.375  0.209-  19 1.83  18 1.93  23 2.13  20 2.15
 122  0.497  0.255  0.379-  31 1.80  20 1.89   1 2.01
 123  0.497  0.249  0.126-  32 1.82  19 1.82  21 1.95
 124  0.340  0.376  0.439-  23 1.89  20 1.90   1 1.92
 125  0.664  0.376  0.048-  39 1.82  36 1.95  21 1.96
 126  0.170  0.249  0.279-  15 1.86  20 2.00  30 2.06  18 2.10
 127  0.831  0.242  0.219-  16 1.83  29 2.01  21 2.03  17 2.19
 128  0.000  0.376  0.372-  35 1.83  15 1.83  17 1.99
 129  0.997  0.375  0.127-  38 1.83  16 1.84  18 1.92
 130  0.839  0.247  0.448-  10 1.81  29 1.93  17 1.93
 131  0.161  0.248  0.051-  11 1.82  30 1.93  18 1.94
 132  0.673  0.124  0.783-  27 1.86  45 2.00  37 2.08  13 2.08
 133  0.328  0.126  0.719-  26 1.89  46 2.00  47 2.06  25 2.07
 134  0.660  0.376  0.561-  41 1.90  37 1.90   1 1.91
 135  0.674  0.625  0.784-   4 1.86   6 1.99  41 2.06  63 2.10
 136  0.164  0.752  0.053-  56 1.82  51 1.94  14 1.94
 137  0.838  0.751  0.447-  57 1.82  50 1.93  12 1.95
 138  0.997  0.876  0.128-  28 1.83  49 1.83  51 1.94
 139  0.004  0.876  0.372-   2 1.83  48 1.83  50 1.94
 140  0.828  0.752  0.219-  49 1.86  55 2.01  50 2.06  12 2.09
 141  0.173  0.752  0.281-  48 1.86  54 2.03  51 2.05  14 2.09
 142  0.664  0.876  0.054-  60 1.82  34 1.95  55 1.96
 143  0.338  0.875  0.447-  61 1.83  33 1.93  54 1.94
 144  0.497  0.751  0.127-  22 1.83  53 1.83  55 1.93
 145  0.504  0.746  0.373-  52 1.85  24 1.89  54 1.93
 146  0.329  0.875  0.220-  53 1.85  51 2.01  33 2.09  54 2.10
 147  0.672  0.875  0.281-  52 1.86  50 2.01  34 2.07  55 2.08
 148  0.163  0.751  0.553-  48 1.83  59 1.93   5 1.93
 149  0.836  0.751  0.947-  49 1.83  58 1.94   6 1.94
 150  0.997  0.876  0.628-  44 1.83  57 1.84  59 1.93
 151  0.003  0.876  0.872-  43 1.83  56 1.83  58 1.94
 152  0.827  0.751  0.719-  57 1.86  63 2.03  58 2.06   6 2.09
 153  0.173  0.751  0.781-  56 1.86  62 2.01  59 2.07   5 2.09
 154  0.662  0.875  0.553-  52 1.83  13 1.93  63 1.94
 155  0.336  0.876  0.946-  53 1.83  25 1.94  62 1.94
 156  0.495  0.746  0.627-  61 1.84   3 1.88  63 1.93
 157  0.503  0.750  0.873-  60 1.83   4 1.84  62 1.93
 158  0.328  0.875  0.719-  61 1.87  59 2.02  25 2.05  62 2.06
 159  0.671  0.875  0.780-  60 1.86  58 2.01  13 2.09  63 2.10
 
  LATTYP: Found a simple monoclinic cell.
 ALAT       =    14.6889751464
 B/A-ratio  =     0.8259161174
 C/A-ratio  =     1.5972413798
 COS(beta)  =    -0.9171837574
  
  Lattice vectors:
  
 A1 = ( -11.8609006218,   0.0000000000,  -8.6651617002)
 A2 = (   0.0000000000, -12.1318613217,   0.0000000000)
 A3 = (  11.8609006218,   0.0000000000,  20.2429474736)


Analysis of symmetry for initial positions (statically):
=====================================================================
 Subroutine PRICEL returns:
 Original cell was already a primitive cell.
 

 Routine SETGRP: Setting up the symmetry group for a 
 simple monoclinic supercell.


 Subroutine GETGRP returns: Found  1 space group operations
 (whereof  1 operations were pure point group operations)
 out of a pool of  4 trial point group operations.


The static configuration has the point symmetry C_1 .


Analysis of symmetry for dynamics (positions and initial velocities):
=====================================================================
 Subroutine PRICEL returns:
 Original cell was already a primitive cell.
 

 Routine SETGRP: Setting up the symmetry group for a 
 simple monoclinic supercell.


 Subroutine GETGRP returns: Found  1 space group operations
 (whereof  1 operations were pure point group operations)
 out of a pool of  4 trial point group operations.


The dynamic configuration has the point symmetry C_1 .


Analysis of structural, dynamic, and magnetic symmetry:
=====================================================================
 Subroutine PRICEL returns:
 Original cell was already a primitive cell.
 

 Routine SETGRP: Setting up the symmetry group for a 
 simple monoclinic supercell.


 Subroutine GETGRP returns: Found  1 space group operations
 (whereof  1 operations were pure point group operations)
 out of a pool of  4 trial point group operations.


The magnetic configuration has the point symmetry C_1 .


 Subroutine INISYM returns: Found  1 space group operations
 (whereof  1 operations are pure point group operations),
 and found     1 'primitive' translations

 
 
 KPOINTS: KPOINTS created by Atomic Simulation Env
  k-points in reciprocal lattice
Space group operators:
 irot       det(A)        alpha          n_x          n_y          n_z        tau_x        tau_y        tau_z
    1     1.000000     0.000000     1.000000     0.000000     0.000000     0.000000     0.000000     0.000000

 ----------------------------------------------------------------------------- 
|                                                                             |
|           W    W    AA    RRRRR   N    N  II  N    N   GGGG   !!!           |
|           W    W   A  A   R    R  NN   N  II  NN   N  G    G  !!!           |
|           W    W  A    A  R    R  N N  N  II  N N  N  G       !!!           |
|           W WW W  AAAAAA  RRRRR   N  N N  II  N  N N  G  GGG   !            |
|           WW  WW  A    A  R   R   N   NN  II  N   NN  G    G                |
|           W    W  A    A  R    R  N    N  II  N    N   GGGG   !!!           |
|                                                                             |
|      Your generating k-point grid is not commensurate to the symmetry       |
|      of the lattice.  This can cause   slow convergence with respect        |
|      to k-points for HF type calculations                                   |
|      suggested SOLUTIONS:                                                   |
|       ) if not already the case, use automatic k-point generation           |
|       ) shift your grid to Gamma (G) (e.g. required for hex or fcc lattice) |
|                                                                             |
 ----------------------------------------------------------------------------- 

 
 Subroutine IBZKPT_HF returns following result:
 ==============================================
 
 Found      2 k-points in 1st BZ
 the following      2 k-points will be used (e.g. in the exchange kernel)
 Following reciprocal coordinates:   # in IRBZ
  0.250000  0.250000  0.250000    0.50000000   1 t-inv F
 -0.250000 -0.250000 -0.250000    0.50000000   1 t-inv T


--------------------------------------------------------------------------------------------------------




 Dimension of arrays:
   k-points           NKPTS =      1   k-points in BZ     NKDIM =      2   number of bands    NBANDS=   1152
   number of dos      NEDOS =    301   number of ions     NIONS =    159
   non local maximal  LDIM  =      6   non local SUM 2l+1 LMDIM =     18
   total plane-waves  NPLWV = 216000
   max r-space proj   IRMAX =   1478   max aug-charges    IRDMAX=   5112
   dimension x,y,z NGX =    60 NGY =   60 NGZ =   60
   dimension x,y,z NGXF=   120 NGYF=  120 NGZF=  120
   support grid    NGXF=   120 NGYF=  120 NGZF=  120
   ions per type =              63  96
 NGX,Y,Z   is equivalent  to a cutoff of   8.17,  8.22,  8.62 a.u.
 NGXF,Y,Z  is equivalent  to a cutoff of  16.33, 16.44, 17.23 a.u.


 I would recommend the setting:
   dimension x,y,z NGX =    60 NGY =   59 NGZ =   57
 SYSTEM =  unknown system                          
 POSCAR =  Ga  O                                   

 Startparameter for this run:
   NWRITE =      2    write-flag & timer
   PREC   = normal    normal or accurate (medium, high low for compatibility)
   ISTART =      1    job   : 0-new  1-cont  2-samecut
   ICHARG =      0    charge: 1-file 2-atom 10-const
   ISPIN  =      2    spin polarized calculation?
   LNONCOLLINEAR =      F non collinear calculations
   LSORBIT =      F    spin-orbit coupling
   INIWAV =      1    electr: 0-lowe 1-rand  2-diag
   LASPH  =      F    aspherical Exc in radial PAW
   METAGGA=      F    non-selfconsistent MetaGGA calc.

 Electronic Relaxation 1
   ENCUT  =  400.0 eV  29.40 Ry    5.42 a.u.  19.92 19.78 18.88*2*pi/ulx,y,z
   ENINI  =  400.0     initial cutoff
   ENAUG  =  605.4 eV  augmentation charge cutoff
   NELM   =     40;   NELMIN=  2; NELMDL=  0     # of ELM steps 
   EDIFF  = 0.1E-03   stopping-criterion for ELM
   LREAL  =      T    real-space projection
   NLSPLINE    = F    spline interpolate recip. space projectors
   LCOMPAT=      F    compatible to vasp.4.4
   GGA_COMPAT  = T    GGA compatible to vasp.4.4-vasp.4.6
   LMAXPAW     = -100 max onsite density
   LMAXMIX     =    2 max onsite mixed and CHGCAR
   VOSKOWN=      0    Vosko Wilk Nusair interpolation
   ROPT   =   -0.00050  -0.00050
 Ionic relaxation
   EDIFFG = 0.1E-02   stopping-criterion for IOM
   NSW    =     45    number of steps for IOM
   NBLOCK =      1;   KBLOCK =     45    inner block; outer block 
   IBRION =      2    ionic relax: 0-MD 1-quasi-New 2-CG
   NFREE  =      1    steps in history (QN), initial steepest desc. (CG)
   ISIF   =      0    stress and relaxation
   IWAVPR =     11    prediction:  0-non 1-charg 2-wave 3-comb
   ISYM   =      3    0-nonsym 1-usesym 2-fastsym
   LCORR  =      T    Harris-Foulkes like correction to forces

   POTIM  = 0.3500    time-step for ionic-motion
   TEIN   =    0.0    initial temperature
   TEBEG  =    0.0;   TEEND  =   0.0 temperature during run
   SMASS  =  -3.00    Nose mass-parameter (am)
   estimated Nose-frequenzy (Omega)   =  0.10E-29 period in steps =****** mass=  -0.341E-26a.u.
   SCALEE = 1.0000    scale energy and forces
   NPACO  =    256;   APACO  = 16.0  distance and # of slots for P.C.
   PSTRESS=    0.0 pullay stress

  Mass of Ions in am
   POMASS =  69.72 16.00
  Ionic Valenz
   ZVAL   =  13.00  6.00
  Atomic Wigner-Seitz radii
   RWIGS  =  -1.00 -1.00
  virtual crystal weights 
   VCA    =   1.00  1.00
   NELECT =    1397.0000    total number of electrons
   NUPDOWN=      -1.0000    fix difference up-down

 DOS related values:
   EMIN   =  10.00;   EMAX   =-10.00  energy-range for DOS
   EFERMI =   0.00
   ISMEAR =     0;   SIGMA  =   0.05  broadening in eV -4-tet -1-fermi 0-gaus

 Electronic relaxation 2 (details)
   IALGO  =     58    algorithm
   LDIAG  =      T    sub-space diagonalisation (order eigenvalues)
   LSUBROT=      F    optimize rotation matrix (better conditioning)
   TURBO    =      0    0=normal 1=particle mesh
   IRESTART =      0    0=no restart 2=restart with 2 vectors
   NREBOOT  =      0    no. of reboots
   NMIN     =      0    reboot dimension
   EREF     =   0.00    reference energy to select bands
   IMIX   =      4    mixing-type and parameters
     AMIX     =   0.40;   BMIX     =  1.00
     AMIX_MAG =   1.60;   BMIX_MAG =  1.00
     AMIN     =   0.10
     WC   =   100.;   INIMIX=   1;  MIXPRE=   1;  MAXMIX= -45

 Intra band minimization:
   WEIMIN = 0.0010     energy-eigenvalue tresh-hold
   EBREAK =  0.22E-07  absolut break condition
   DEPER  =   0.30     relativ break condition  

   TIME   =   0.40     timestep for ELM

  volume/ion in A,a.u.               =      10.48        70.71
  Fermi-wavevector in a.u.,A,eV,Ry     =   1.543773  2.917308 32.425880  2.383235
  Thomas-Fermi vector in A             =   2.649388
 
 Write flags
   LWAVE  =      T    write WAVECAR
   LCHARG =      F    write CHGCAR
   LVTOT  =      F    write LOCPOT, total local potential
   LVHAR  =      T    write LOCPOT, Hartree potential only
   LELF   =      F    write electronic localiz. function (ELF)
   LORBIT =     10    0 simple, 1 ext, 2 COOP (PROOUT)


 Dipole corrections
   LMONO  =      F    monopole corrections only (constant potential shift)
   LDIPOL =      F    correct potential (dipole corrections)
   IDIPOL =      0    1-x, 2-y, 3-z, 4-all directions 
   EPSILON=  1.0000000 bulk dielectric constant

 Exchange correlation treatment:
   GGA     =    --    GGA type
   LEXCH   =     8    internal setting for exchange type
   VOSKOWN=      0    Vosko Wilk Nusair interpolation
   EXXOEP  =     0    0=HF, 1=EXX-LHF (local Hartree Fock) 2=EXX OEP
   LHFCALC =     T    Hartree Fock is set to
   LSYMGRAD=     F    symmetrize gradient (conserves proper symmetry)
   PRECFOCK=fast      Normal, Fast or Accurate (Low or Medium for compatibility)
   LRHFCALC=     F    long range Hartree Fock
   LRSCOR  =     F    long range correlation only (use DFT for short range part)
   LTHOMAS =     F    Thomas Fermi screening in HF
   LMODELHF=     F    short range full HF, long range fraction AEXX
   ENCUT4O =  -1.0   cutoff for four orbital integrals eV
   LMAXFOCK=     4    L truncation for augmentation on plane wave grid
   LMAXFOCKAE=  -1    L truncation for all-electron charge restoration on plane wave grid
   NMAXFOCKAE=   1    number of basis functions for all-electron charge restoration
   LFOCKAEDFT=     F  apply the AE augmentation even for DFT
   NKREDX  =     1    reduce k-point grid by
   NKREDY  =     1    reduce k-point grid by
   NKREDZ  =     1    reduce k-point grid by
   SHIFTRED=     F    shift reduced grid of Gamma
   HFKIDENT=     F    idential grid for each k-point
   ODDONLY =     F    use only odd q-grid points
   EVENONLY=     F    use only even q-grid points
   HFALPHA =   -1.0000 decay constant for conv. correction
   MCALPHA =    0.0000 extent of test-charge in conv. correction in multipole expansion
   AEXX    =    0.3200 exact exchange contribution
   HFSCREEN=    0.2000 screening length (either q_TF or 0.3 A-1)
   HFSCREENC=   0.2000 screening length for correlation (either q_TF or 0.3 A-1)
   HFRCUT  =    0.0000 spherical cutoff for potential kernel
   ALDAX   =    0.6800 LDA exchange part
   AGGAX   =    0.6800 GGA exchange part
   ALDAC   =    1.0000 LDA correlation
   AGGAC   =    1.0000 GGA correlation
   NBANDSGWLOW=     1    first orbital included in HF term
   ENCUTFOCK=  -1.0 apply spherical cutoff to Coloumb kernel
 Linear response parameters
   LEPSILON=     F    determine dielectric tensor
   LRPA    =     F    only Hartree local field effects (RPA)
   LNABLA  =     F    use nabla operator in PAW spheres
   LVEL    =     F    velocity operator in full k-point grid
   LINTERFAST=   F  fast interpolation
   KINTER  =     0    interpolate to denser k-point grid
   CSHIFT  =0.1000    complex shift for real part using Kramers Kronig
   OMEGAMAX=  -1.0    maximum frequency
   DEG_THRESHOLD= 0.2000000E-02 threshold for treating states as degnerate
   RTIME   =    0.100 relaxation time in fs

 Orbital magnetization related:
   ORBITALMAG=     F  switch on orbital magnetization
   LCHIMAG   =     F  perturbation theory with respect to B field
   DQ        =  0.001000  dq finite difference perturbation B field



--------------------------------------------------------------------------------------------------------


 conjugate gradient relaxation of ions
 charge density and potential will be updated during run
 spin polarized calculation
 Conjugate gradient for all bands (Freysoldt, et al. PRB 79, 241103 (2009))
 preconditioned conjugated gradient                                        
 perform sub-space diagonalisation
    before iterative eigenvector-optimisation
 modified Broyden-mixing scheme, WC =      100.0
 initial mixing is a Kerker type mixing with AMIX =  0.4000 and BMIX =      1.0000
 Hartree-type preconditioning will be used
 using additional bands          453
 real space projection scheme for non local part
 use partial core corrections
 no Harris-corrections to forces 
 use gradient corrections 
 use of overlap-Matrix (Vanderbilt PP)
 Gauss-broadening in eV      SIGMA  =   0.05


--------------------------------------------------------------------------------------------------------


  energy-cutoff  :      400.00
  volume of cell :     1665.98
      direct lattice vectors                 reciprocal lattice vectors
    11.860900622  0.000000000 -2.912624073     0.084310630  0.000000000  0.000000000
     0.000000000 12.131861322  0.000000000     0.000000000  0.082427583  0.000000000
     0.000000000  0.000000000 11.577785773     0.021210029  0.000000000  0.086372301

  length of vectors
    12.213285494 12.131861322 11.577785773     0.084310630  0.082427583  0.088938404


 
 old parameters found on file WAVECAR:
  energy-cutoff  :      400.00
  volume of cell :     1665.98
      direct lattice vectors                 reciprocal lattice vectors
    11.860900622  0.000000000 -2.912624073     0.084310630  0.000000000  0.000000000
     0.000000000 12.131861322  0.000000000     0.000000000  0.082427583  0.000000000
     0.000000000  0.000000000 11.577785773     0.021210029  0.000000000  0.086372301

  length of vectors

 
 k-points in units of 2pi/SCALE and weight: KPOINTS created by Atomic Simulation Env
   0.02638016  0.02060690  0.02159308       1.000
 
 k-points in reciprocal lattice and weights: KPOINTS created by Atomic Simulation Env
   0.25000000  0.25000000  0.25000000       1.000
 
 position of ions in fractional coordinates (direct lattice) 
   0.50085670  0.37608219  0.49771218
   0.09105481  0.99985101  0.39607426
   0.41192766  0.61441536  0.60155815
   0.59024516  0.62433673  0.89832233
   0.16037220  0.62500450  0.65477654
   0.84088245  0.62557472  0.84482184
   0.90905771  0.50113773  0.60473289
   0.08834275  0.50050053  0.89439501
   0.84066479  0.37495109  0.84827761
   0.91053125  0.24872931  0.60480533
   0.08726700  0.24921062  0.89439238
   0.83996718  0.62465062  0.34345974
   0.65687336  0.00099881  0.65397323
   0.15919355  0.62590027  0.15479650
   0.08577730  0.25002073  0.39365559
   0.91284306  0.24850405  0.10562122
   0.83324568  0.37493056  0.34801656
   0.15872111  0.37496331  0.15203940
   0.41359149  0.37488810  0.10647394
   0.33712515  0.24934860  0.34219387
   0.66138213  0.25473531  0.16017879
   0.41160190  0.62504744  0.10515200
   0.33710039  0.50102400  0.34064629
   0.58903330  0.61390438  0.39840757
   0.34185341  0.99955152  0.84200330
   0.41335383  0.13556980  0.60218637
   0.59065236  0.12480257  0.89842278
   0.90927526  0.99958160  0.10384000
   0.83972600  0.12469373  0.34320436
   0.15946268  0.12379590  0.15551803
   0.58772457  0.13580715  0.39787385
   0.41126027  0.12455059  0.10509814
   0.34325912  0.00099218  0.34631009
   0.65875869  0.00140008  0.15812003
   0.08720629  0.49998119  0.39380405
   0.66126414  0.49534852  0.16045305
   0.66133870  0.24981890  0.65907940
   0.91185486  0.50128427  0.10554635
   0.58595581  0.37460700  0.89348986
   0.15463009  0.37517945  0.64869847
   0.66132816  0.50058786  0.66057235
   0.34143180  0.50404438  0.84706452
   0.09094541  0.99948278  0.89629602
   0.90962495  0.00012906  0.60363175
   0.84060886  0.12402880  0.84415246
   0.16059808  0.12479004  0.65492766
   0.34122526  0.24573288  0.84769087
   0.08975271  0.75054765  0.39584979
   0.91068638  0.75106015  0.10405444
   0.84031091  0.87534187  0.34393608
   0.16058437  0.87546918  0.15762116
   0.58692317  0.87453095  0.39519727
   0.40998540  0.87515295  0.10337184
   0.34269787  0.74896052  0.34680377
   0.65923725  0.74878893  0.15738711
   0.08947910  0.75096651  0.89599707
   0.91092832  0.75014292  0.60392401
   0.83942895  0.87544138  0.84241990
   0.15942381  0.87544530  0.65581653
   0.59022945  0.87496652  0.89722952
   0.41314651  0.87458155  0.60415250
   0.34136928  0.75069905  0.84284987
   0.65743919  0.74886583  0.65337457
   0.67843145  0.37541118  0.79005733
   0.31860700  0.37523085  0.72766155
   0.50153883  0.24777569  0.87091267
   0.16179649  0.50143286  0.05065238
   0.49699951  0.50079239  0.12669227
   0.99794097  0.62675724  0.12702200
   0.50154187  0.50111440  0.87066084
   0.50160892  0.49552675  0.62193473
   0.33543006  0.62672471  0.94806562
   0.66874775  0.62497770  0.55404671
   0.17242253  0.50021184  0.78022144
   0.82973640  0.50125888  0.72221012
   0.00325134  0.62598498  0.87159788
   0.99764925  0.62501460  0.62909209
   0.83972406  0.50156589  0.94876634
   0.16075108  0.50032422  0.55136766
   0.67223177  0.62471452  0.28219159
   0.32565999  0.62569566  0.21747027
   0.49639550  0.49694091  0.37886766
   0.50139268  0.25648033  0.62197690
   0.33003926  0.62570517  0.44697903
   0.66368190  0.62359473  0.05469758
   0.16938187  0.50102933  0.27798399
   0.83147041  0.50604410  0.21986812
   0.00332741  0.62607186  0.37231779
   0.83833421  0.50165567  0.44846029
   0.33740336  0.37553316  0.94649579
   0.68087624  0.37528310  0.27092065
   0.17242469  0.24923781  0.78073087
   0.17331379  0.99963150  0.78041255
   0.82714684  0.99928262  0.71932901
   0.00310759  0.12278536  0.87142107
   0.99783128  0.12362515  0.62907337
   0.83527436  0.99932111  0.94705781
   0.16399076  0.99947037  0.55313092
   0.67157154  0.12450813  0.28227531
   0.32628060  0.12364996  0.21818167
   0.66734247  0.12382600  0.55357455
   0.50443979  0.00281117  0.37275569
   0.33133390  0.12326025  0.44757907
   0.66373885  0.12506832  0.05474013
   0.17316629  0.99905422  0.28043874
   0.82724586  0.99869382  0.21953274
   0.00325642  0.12276300  0.37225252
   0.99811732  0.12223355  0.12723250
   0.83678149  0.99948560  0.44700825
   0.16522816  0.99907894  0.05267223
   0.49663564  0.99953037  0.12750869
   0.33537411  0.12209272  0.94802929
   0.49535643  0.00275998  0.62766112
   0.50353525  0.99985231  0.87280010
   0.82956033  0.24799555  0.72137884
   0.00282226  0.37545855  0.87182772
   0.99531648  0.37564949  0.62896634
   0.84038508  0.24761905  0.94862214
   0.15971774  0.24964903  0.55136718
   0.32769189  0.62362440  0.71884183
   0.32052386  0.37549827  0.20901682
   0.49651975  0.25458653  0.37908877
   0.49692607  0.24865668  0.12645095
   0.33956532  0.37603266  0.43931507
   0.66375452  0.37557581  0.04814278
   0.16958104  0.24858253  0.27876480
   0.83138048  0.24247443  0.21934418
   0.00019531  0.37567083  0.37188802
   0.99728982  0.37547878  0.12707454
   0.83932279  0.24747907  0.44845339
   0.16120263  0.24774857  0.05080773
   0.67332539  0.12382697  0.78287802
   0.32821504  0.12558076  0.71879590
   0.66030643  0.37601391  0.56149838
   0.67394569  0.62548188  0.78358894
   0.16416191  0.75171122  0.05253070
   0.83789963  0.75081308  0.44700934
   0.99732093  0.87601320  0.12755200
   0.00351059  0.87587221  0.37205144
   0.82750075  0.75185499  0.21908572
   0.17279282  0.75183903  0.28060134
   0.66362768  0.87569644  0.05395539
   0.33775680  0.87545614  0.44741623
   0.49673538  0.75058517  0.12734892
   0.50438813  0.74563124  0.37304430
   0.32886758  0.87542803  0.21987101
   0.67169375  0.87531274  0.28105907
   0.16293731  0.75106860  0.55314788
   0.83635154  0.75136602  0.94715008
   0.99704284  0.87582840  0.62848844
   0.00289835  0.87594889  0.87200161
   0.82748350  0.75136729  0.71918050
   0.17302718  0.75074763  0.78082503
   0.66159811  0.87540949  0.55262604
   0.33628980  0.87572602  0.94628502
   0.49543795  0.74584063  0.62743215
   0.50346022  0.74980448  0.87298363
   0.32846607  0.87527317  0.71898216
   0.67120903  0.87543203  0.78022912
 
 position of ions in cartesian coordinates  (Angst):
   5.94061158  4.56257695  4.30359771
   1.07999206 12.13005381  4.32045446
   4.88583303  7.45400199  5.76492098
   7.00083916  7.57436661  8.68142127
   1.90215872  7.58246792  7.11375853
   9.97362316  7.58938579  7.33199185
  10.78224313  6.07973348  4.35372445
   1.04782452  6.07200307 10.09780457
   9.97104151  4.54885464  7.37263593
  10.79972061  3.01754947  4.35027137
   1.03506520  3.02338866 10.10090742
   9.96276729  7.57817467  1.52999469
   7.79110968  0.01211742  5.65833679
   1.88817883  7.59333528  1.32852981
   1.01739599  3.03321683  4.30782305
  10.82714087  3.01481671 -1.43590877
   9.88304420  4.54860552  1.60232972
   1.88257531  4.54900287  1.29798469
   4.90556756  4.54809043  0.02809595
   3.99860787  3.02506265  2.97992851
   7.84458770  3.09041342 -0.07184179
   4.88196922  7.58298889  0.01858573
   3.99831424  6.07835366  2.96208307
   6.98646547  7.44780281  2.89704497
   4.05468931 12.12642037  8.75284339
   4.90274875  1.64471400  5.76804042
   7.00566891  1.51408743  8.68139821
  10.78482348 12.12678536 -1.44613978
   9.95990665  1.51276704  1.52774034
   1.89137105  1.50187464  1.33609955
   6.97094271  1.64759352  2.89467750
   4.87791715  1.51103047  0.01895718
   4.07136236  0.01203699  3.00971929
   7.81347141  0.01698555 -0.08803659
   1.03434518  6.06570249  4.30537983
   7.84318823  6.00949954 -0.06832285
   7.84407255  3.03076831  5.70444915
  10.81541989  6.08151122 -1.43389737
   6.94996360  4.54468022  8.63796518
   1.83405207  4.55162503  7.06011256
   7.84394758  6.07306245  5.72176478
   4.04968864  6.11499656  8.81266910
   1.07869446 12.12558651 10.11223346
  10.78897108  0.00156569  4.33932355
   9.97037817  1.50470015  7.32503873
   1.90483784  1.51393546  7.11485032
   4.04723887  2.98119722  8.82052241
   1.06454796  9.10553997  4.32164819
  10.80156071  9.11175762 -1.44776702
   9.96684423 10.61952620  1.53450845
   1.90467526 10.62107065  1.35718213
   6.96143740 10.60968820  2.86602277
   4.86279604 10.61723427  0.00268368
   4.06470536  9.08628516  3.01706970
   7.81914753  9.08420347 -0.09791610
   1.06130271  9.11062150 10.11304309
  10.80443032  9.10062992  4.33891106
   9.95638336 10.62073346  7.30841612
   1.89091001 10.62078098  7.12856170
   7.00065285 10.61497245  8.66881471
   4.90028972 10.61030207  5.79140769
   4.04894707  9.10737681  8.76405486
   7.79782091  9.08513645  5.64975762
   8.04680800  4.55443633  7.17109879
   3.77896596  4.55224866  7.49672714
   5.94870224  3.00598027  8.62244622
   1.91905214  6.08331398  0.11519003
   5.89486185  6.07554383  0.01924316
  11.83647866  7.60373197 -1.43599343
   5.94873825  6.07945046  8.61952177
   5.94953349  6.01166182  5.73962888
   3.97850259  7.60333727  9.99951899
   7.93195060  7.58214278  4.46682338
   2.04508654  6.06850069  8.53103470
   9.84142099  6.08120325  5.94488387
   0.03856386  7.59436293 10.08170363
  11.83301863  7.58259040  4.37771620
   9.95988368  6.08492780  8.53881295
   1.90665255  6.06986410  5.91540924
   7.97327416  7.57894996  1.30919531
   3.86262072  7.59085294  1.56929912
   5.88769767  6.02881816  2.94063512
   5.94696872  3.11158385  5.74074693
   3.91456289  7.59096834  4.21374713
   7.87186500  7.56536477 -1.29977902
   2.00902149  6.07841830  2.72509338
   9.86198787  6.13925681  0.12382528
   0.03946611  7.59541702  4.30092408
   9.94339878  6.08601697  2.75042472
   4.00190773  4.55591619  9.97559631
   8.07580547  4.55288258  1.15352468
   2.04511214  3.02371851  8.53692639
   2.05565767 12.12739078  8.53065134
   9.81070642 12.12315814  5.91906937
   0.03685886  1.48961494 10.08007523
  11.83517762  1.49980323  4.37696927
   9.90710623 12.12362514  8.53199217
   1.94507810 12.12543598  5.92638791
   7.96544326  1.51051538  1.31208768
   3.86998176  1.50010412  1.57572788
   7.91528271  1.50223988  4.46544982
   5.98311021  0.03410470  2.84644203
   3.92991841  1.49537629  4.21692351
   7.87254050  1.51731146 -1.29945225
   2.05390821 12.12038723  2.74249134
   9.81188098 12.11601492  0.13224687
   0.03862410  1.48934375  4.30037525
  11.83857036  1.48292054 -1.43406988
   9.92498208 12.12562075  2.73813585
   1.95975482 12.12068716  0.12858027
   5.89054594 12.12616380  0.02975536
   3.97783896  1.48121190  9.99926129
   5.87537344  0.03348375  5.82413891
   5.97238156 12.13006953  8.63848371
   9.83933263  3.00864764  5.93577228
   0.03347458  4.55501107 10.08561433
  11.80534989  4.55732758  4.38305484
   9.96772393  3.00408000  8.53521814
   1.89439624  3.02870744  5.91841341
   3.88672098  7.56572469  7.36815341
   3.80170160  4.55549293  1.48638641
   5.88917136  3.08860845  2.94283326
   5.89399078  3.01666840  0.01666313
   4.02755056  4.56197612  4.09726958
   7.87272636  4.55643367 -1.37588061
   2.01138386  3.01576882  2.73355331
   9.86092130  2.94166617  0.11802108
   0.00231659  4.55758642  4.30507099
  11.82875550  4.55525644 -1.43348853
   9.95512415  3.00238171  2.74746557
   1.91200842  3.00565130  0.11871832
   7.98624558  1.50225159  7.10285021
   3.89292594  1.52352831  7.36609790
   7.83182893  4.56174861  4.57768352
   7.99360281  7.58825941  7.10927451
   1.94710805  9.11965627  0.13004725
   9.93824428  9.10876019  2.73489175
  11.82912446 10.62767060 -1.42805127
   0.04163880 10.62596014  4.29730678
   9.81490417  9.12140047  0.12632896
   2.04947849  9.12120681  2.74546168
   7.87122197 10.62382783 -1.30821403
   4.00609984 10.62091247  4.19633067
   5.89172893  9.10599514  0.02761515
   5.98249745  9.04589476  2.84993401
   3.90066567 10.62057142  1.58775182
   7.96689282 10.61917282  1.29765028
   1.93258327  9.11186009  5.92965246
   9.91988249  9.11546834  8.52992306
  11.82582608 10.62542865  4.37249356
   0.03437699 10.62689040 10.08740599
   9.81469959  9.11548372  5.91636938
   2.05225819  9.10796617  8.53626179
   7.84714944 10.62034653  4.47119934
   3.98869995 10.62418669  9.97639949
   5.87634033  9.04843510  5.82125050
   5.97149165  9.09652398  8.64082707
   3.89590343 10.61869272  7.36752318
   7.96114365 10.62062003  7.07834601
 


--------------------------------------------------------------------------------------------------------


 k-point  1 :   0.2500 0.2500 0.2500  plane waves:   30269

 maximum and minimum number of plane-waves per node :     30269    30269

 maximum number of plane-waves:     30269
 maximum index in each direction: 
   IXMAX=   19   IYMAX=   19   IZMAX=   18
   IXMIN=  -20   IYMIN=  -20   IZMIN=  -19

 WARNING: aliasing errors must be expected set NGX to  80 to avoid them
 WARNING: aliasing errors must be expected set NGY to  80 to avoid them
 WARNING: aliasing errors must be expected set NGZ to  76 to avoid them
 aliasing errors are usually negligible using standard VASP settings
 and one can safely disregard these warnings

 serial   3D FFT for wavefunctions
 parallel 3D FFT for charge:
    minimum data exchange during FFTs selected (reduces bandwidth)


 FFT grid for exact exchange (Hartree Fock) 
  NGX = 42; NGY = 42; NGZ = 40

 
 Radii for the augmentation spheres in the non-local exchange
 for species   1 augmentation radius   1.277 (default was   1.031)
       energy cutoff for augmentation   1600.0
 for species   2 augmentation radius   0.820 (default was   0.722)
       energy cutoff for augmentation   1600.0
 Maximum index for augmentation-charges in exchange          382
  SETUP_FOCK is finished

 total amount of memory used by VASP on root node   100105. kBytes
========================================================================

   base      :      30000. kBytes
   nonlr-proj:      32571. kBytes
   fftplans  :       1403. kBytes
   grid      :      18562. kBytes
   one-center:       4945. kBytes
   HF        :        129. kBytes
   wavefun   :      12495. kBytes
 
     INWAV:  cpu time    3.5629: real time    3.5633
 Broyden mixing: mesh for mixing (old mesh)
   NGX = 39   NGY = 39   NGZ = 37
  (NGX  =120   NGY  =120   NGZ  =120)
  gives a total of  56277 points

 charge density for first step will be calculated from the start-wavefunctions


--------------------------------------------------------------------------------------------------------


 Maximum index for non-local projection operator         1398
 Maximum index for augmentation-charges          168 (set IRDMAX)


--------------------------------------------------------------------------------------------------------


 initial charge from wavefunction
 First call to EWALD:  gamma=   0.150
 Maximum number of real-space cells 3x 3x 3
 Maximum number of reciprocal cells 3x 3x 3

 FEWALD executed in parallel
    FEWALD:  cpu time    0.0054: real time    0.0056


----------------------------------------- Iteration    1(   1)  ---------------------------------------


    POTLOK:  cpu time    0.1219: real time    0.1224
    SETDIJ:  cpu time    0.3736: real time    0.3736
    TRIAL :  cpu time  107.7640: real time  107.8113
    CORREC:  cpu time  106.3718: real time  106.3978
    CHARGE:  cpu time    0.1312: real time    0.1312
    --------------------------------------------
      LOOP:  cpu time  214.7892: real time  214.8893

 eigenvalue-minimisations  :     0
 total energy-change (2. order) :-0.1492111E+04  (-0.8119228E-05)
 number of electron    1397.0003270 magnetization       1.0000006
 augmentation part      606.1086888 magnetization       0.2494813

 Free energy of the ion-electron system (eV)
  ---------------------------------------------------
  alpha Z        PSCENC =      9368.91501797
  Ewald energy   TEWEN  =   -116400.23743521
  -Hartree energ DENC   =    -45375.87049171
  -exchange      EXHF   =      5248.04341232
  -V(xc)+E(xc)   XCENC  =      4729.33382031
  PAW double counting   =    126578.69549755  -148140.33414153
  entropy T*S    EENTRO =        -0.00000000
  eigenvalues    EBANDS =    -13678.98916106
  atomic energy  EATOM  =    176178.33200529
  ---------------------------------------------------
  free energy    TOTEN  =     -1492.11147610 eV

  energy without entropy =    -1492.11147610  energy(sigma->0) =    -1492.11147610
  exchange ACFDT corr.  =         0.00000000  see jH, gK, PRB 81, 115126


--------------------------------------------------------------------------------------------------------




----------------------------------------- Iteration    1(   2)  ---------------------------------------


    POTLOK:  cpu time    0.1157: real time    0.1166
    SETDIJ:  cpu time    0.3728: real time    0.3729
    TRIAL :  cpu time  108.2123: real time  108.2403
    CORREC:  cpu time  106.4143: real time  106.4394
    CHARGE:  cpu time    0.1325: real time    0.1325
    --------------------------------------------
      LOOP:  cpu time  215.2509: real time  215.3466

 eigenvalue-minimisations  :     0
 total energy-change (2. order) :-0.8079543E-05  (-0.7068480E-05)
 number of electron    1397.0003270 magnetization       1.0000006
 augmentation part      606.1092335 magnetization       0.2494766

 Free energy of the ion-electron system (eV)
  ---------------------------------------------------
  alpha Z        PSCENC =      9368.91501797
  Ewald energy   TEWEN  =   -116400.23743521
  -Hartree energ DENC   =    -45375.77313839
  -exchange      EXHF   =      5248.04070223
  -V(xc)+E(xc)   XCENC  =      4729.33081170
  PAW double counting   =    126578.60860364  -148140.12580059
  entropy T*S    EENTRO =        -0.00000000
  eigenvalues    EBANDS =    -13679.20225080
  atomic energy  EATOM  =    176178.33200529
  ---------------------------------------------------
  free energy    TOTEN  =     -1492.11148418 eV

  energy without entropy =    -1492.11148418  energy(sigma->0) =    -1492.11148418
  exchange ACFDT corr.  =         0.00000000  see jH, gK, PRB 81, 115126


--------------------------------------------------------------------------------------------------------


  average scaling for gradient   0.9971


 average (electrostatic) potential at core
  the test charge radii are     1.0314  0.7215
  (the norm of the test charge is              1.0000)
       1 -19.2737       2 -20.3703       3 -20.0360       4 -20.3624       5 -20.4203
       6 -20.3395       7 -20.3641       8 -20.4305       9 -20.2472      10 -20.3944
      11 -20.4549      12 -20.2106      13 -20.2398      14 -20.3466      15 -20.3870
      16 -20.2880      17 -19.9333      18 -20.2382      19 -20.1878      20 -19.8703
      21 -19.8682      22 -20.3907      23 -19.8228      24 -19.9627      25 -20.3896
      26 -20.0676      27 -20.3401      28 -20.3997      29 -20.1728      30 -20.3149
      31 -19.9839      32 -20.3727      33 -20.2311      34 -20.2493      35 -20.3607
      36 -19.8212      37 -19.8661      38 -20.2591      39 -20.0883      40 -20.4781
      41 -19.8146      42 -20.4037      43 -20.4412      44 -20.4003      45 -20.3093
      46 -20.3996      47 -20.4423      48 -20.4120      49 -20.4389      50 -20.3067
      51 -20.3388      52 -20.2941      53 -20.4012      54 -20.2874      55 -20.3130
      56 -20.4823      57 -20.4410      58 -20.3638      59 -20.4054      60 -20.4005
      61 -20.3581      62 -20.4465      63 -20.2983      64 -63.5363      65 -65.2771
      66 -63.6997      67 -63.3841      68 -63.5698      69 -63.7300      70 -63.6853
      71 -62.5976      72 -63.5346      73 -63.1086      74 -63.9611      75 -63.7992
      76 -63.7979      77 -63.7399      78 -63.3389      79 -63.4662      80 -63.6407
      81 -63.9041      82 -62.5711      83 -62.6265      84 -63.1213      85 -63.2541
      86 -63.8023      87 -63.4850      88 -63.6804      89 -63.2744      90 -63.4231
      91 -62.2762      92 -63.9670      93 -63.9565      94 -63.8803      95 -63.7690
      96 -63.7206      97 -63.4353      98 -63.4506      99 -63.6142     100 -63.8766
     101 -63.1029     102 -63.4396     103 -63.1143     104 -63.2294     105 -63.8695
     106 -63.8701     107 -63.6530     108 -63.6982     109 -63.3624     110 -63.4293
     111 -63.7158     112 -63.5175     113 -63.5046     114 -63.7285     115 -63.8217
     116 -63.7981     117 -63.8201     118 -63.3590     119 -63.4861     120 -63.8451
     121 -63.5209     122 -62.5943     123 -63.5880     124 -62.4218     125 -62.9169
     126 -63.8268     127 -63.4927     128 -63.6016     129 -63.7237     130 -63.2931
     131 -63.4021     132 -63.8406     133 -63.8335     134 -62.4007     135 -63.8667
     136 -63.4614     137 -63.3922     138 -63.7333     139 -63.7054     140 -63.8883
     141 -63.8770     142 -63.3403     143 -63.3978     144 -63.7496     145 -63.4619
     146 -63.8214     147 -63.8057     148 -63.4833     149 -63.4674     150 -63.7567
     151 -63.7727     152 -63.8911     153 -63.9750     154 -63.3677     155 -63.4449
     156 -63.5261     157 -63.7599     158 -63.9524     159 -63.8376
 
 
 
 E-fermi :   1.5187     XC(G=0):  -8.8456     alpha+bet :-11.1728


 spin component 1

 k-point     1 :       0.2500    0.2500    0.2500
  band No.  band energies     occupation 
      1     -20.5253      1.00000
      2     -20.1482      1.00000
      3     -20.0103      1.00000
      4     -19.9867      1.00000
      5     -19.9075      1.00000
      6     -19.7949      1.00000
      7     -19.7680      1.00000
      8     -19.6871      1.00000
      9     -19.5930      1.00000
     10     -19.5446      1.00000
     11     -19.5271      1.00000
     12     -19.4872      1.00000
     13     -19.4272      1.00000
     14     -19.3963      1.00000
     15     -19.3722      1.00000
     16     -19.3531      1.00000
     17     -19.2939      1.00000
     18     -19.2808      1.00000
     19     -19.2626      1.00000
     20     -19.2291      1.00000
     21     -19.2090      1.00000
     22     -19.1771      1.00000
     23     -19.1719      1.00000
     24     -19.1559      1.00000
     25     -19.1419      1.00000
     26     -19.1267      1.00000
     27     -19.1115      1.00000
     28     -19.0967      1.00000
     29     -19.0759      1.00000
     30     -19.0582      1.00000
     31     -19.0433      1.00000
     32     -19.0219      1.00000
     33     -18.9984      1.00000
     34     -18.9821      1.00000
     35     -18.9802      1.00000
     36     -18.9603      1.00000
     37     -18.9409      1.00000
     38     -18.9249      1.00000
     39     -18.9023      1.00000
     40     -18.8969      1.00000
     41     -18.8772      1.00000
     42     -18.8624      1.00000
     43     -18.8507      1.00000
     44     -18.8382      1.00000
     45     -18.8184      1.00000
     46     -18.8035      1.00000
     47     -18.7984      1.00000
     48     -18.7816      1.00000
     49     -18.7718      1.00000
     50     -18.7604      1.00000
     51     -18.7534      1.00000
     52     -18.7352      1.00000
     53     -18.7194      1.00000
     54     -18.7084      1.00000
     55     -18.6855      1.00000
     56     -18.6783      1.00000
     57     -18.6556      1.00000
     58     -18.6508      1.00000
     59     -18.6433      1.00000
     60     -18.6336      1.00000
     61     -18.6240      1.00000
     62     -18.6205      1.00000
     63     -18.6109      1.00000
     64     -18.5997      1.00000
     65     -18.5884      1.00000
     66     -18.5797      1.00000
     67     -18.5727      1.00000
     68     -18.5654      1.00000
     69     -18.5549      1.00000
     70     -18.5493      1.00000
     71     -18.5398      1.00000
     72     -18.5318      1.00000
     73     -18.5227      1.00000
     74     -18.5145      1.00000
     75     -18.5014      1.00000
     76     -18.4890      1.00000
     77     -18.4795      1.00000
     78     -18.4523      1.00000
     79     -18.4382      1.00000
     80     -18.4320      1.00000
     81     -18.4284      1.00000
     82     -18.3940      1.00000
     83     -18.3861      1.00000
     84     -18.3083      1.00000
     85     -18.2904      1.00000
     86     -18.2863      1.00000
     87     -18.2597      1.00000
     88     -18.2438      1.00000
     89     -18.1878      1.00000
     90     -18.1618      1.00000
     91     -17.8813      1.00000
     92     -17.8757      1.00000
     93     -17.8083      1.00000
     94     -17.7045      1.00000
     95     -17.6032      1.00000
     96     -17.5599      1.00000
     97     -14.5473      1.00000
     98     -14.5351      1.00000
     99     -14.5239      1.00000
    100     -14.5091      1.00000
    101     -14.4992      1.00000
    102     -14.4944      1.00000
    103     -14.4803      1.00000
    104     -14.4717      1.00000
    105     -14.4689      1.00000
    106     -14.4640      1.00000
    107     -14.4596      1.00000
    108     -14.4567      1.00000
    109     -14.4531      1.00000
    110     -14.4485      1.00000
    111     -14.4447      1.00000
    112     -14.4403      1.00000
    113     -14.4368      1.00000
    114     -14.4336      1.00000
    115     -14.4312      1.00000
    116     -14.4263      1.00000
    117     -14.4246      1.00000
    118     -14.4208      1.00000
    119     -14.4168      1.00000
    120     -14.4139      1.00000
    121     -14.4106      1.00000
    122     -14.4050      1.00000
    123     -14.4045      1.00000
    124     -14.4023      1.00000
    125     -14.4001      1.00000
    126     -14.3988      1.00000
    127     -14.3941      1.00000
    128     -14.3901      1.00000
    129     -14.3874      1.00000
    130     -14.3821      1.00000
    131     -14.3774      1.00000
    132     -14.3756      1.00000
    133     -14.3722      1.00000
    134     -14.3688      1.00000
    135     -14.3621      1.00000
    136     -14.3606      1.00000
    137     -14.3582      1.00000
    138     -14.3524      1.00000
    139     -14.3506      1.00000
    140     -14.3453      1.00000
    141     -14.3418      1.00000
    142     -14.3409      1.00000
    143     -14.3369      1.00000
    144     -14.3352      1.00000
    145     -14.3321      1.00000
    146     -14.3298      1.00000
    147     -14.3254      1.00000
    148     -14.3228      1.00000
    149     -14.3189      1.00000
    150     -14.3158      1.00000
    151     -14.3148      1.00000
    152     -14.3113      1.00000
    153     -14.3058      1.00000
    154     -14.3020      1.00000
    155     -14.2979      1.00000
    156     -14.2959      1.00000
    157     -14.2938      1.00000
    158     -14.2918      1.00000
    159     -14.2896      1.00000
    160     -14.2868      1.00000
    161     -14.2837      1.00000
    162     -14.2819      1.00000
    163     -14.2815      1.00000
    164     -14.2792      1.00000
    165     -14.2758      1.00000
    166     -14.2728      1.00000
    167     -14.2695      1.00000
    168     -14.2669      1.00000
    169     -14.2645      1.00000
    170     -14.2611      1.00000
    171     -14.2568      1.00000
    172     -14.2559      1.00000
    173     -14.2549      1.00000
    174     -14.2517      1.00000
    175     -14.2488      1.00000
    176     -14.2471      1.00000
    177     -14.2432      1.00000
    178     -14.2388      1.00000
    179     -14.2374      1.00000
    180     -14.2339      1.00000
    181     -14.2313      1.00000
    182     -14.2294      1.00000
    183     -14.2271      1.00000
    184     -14.2252      1.00000
    185     -14.2233      1.00000
    186     -14.2192      1.00000
    187     -14.2181      1.00000
    188     -14.2160      1.00000
    189     -14.2133      1.00000
    190     -14.2119      1.00000
    191     -14.2105      1.00000
    192     -14.2071      1.00000
    193     -14.2037      1.00000
    194     -14.2003      1.00000
    195     -14.1989      1.00000
    196     -14.1964      1.00000
    197     -14.1938      1.00000
    198     -14.1920      1.00000
    199     -14.1899      1.00000
    200     -14.1887      1.00000
    201     -14.1856      1.00000
    202     -14.1820      1.00000
    203     -14.1804      1.00000
    204     -14.1779      1.00000
    205     -14.1767      1.00000
    206     -14.1752      1.00000
    207     -14.1703      1.00000
    208     -14.1681      1.00000
    209     -14.1658      1.00000
    210     -14.1648      1.00000
    211     -14.1614      1.00000
    212     -14.1607      1.00000
    213     -14.1584      1.00000
    214     -14.1547      1.00000
    215     -14.1541      1.00000
    216     -14.1524      1.00000
    217     -14.1517      1.00000
    218     -14.1492      1.00000
    219     -14.1475      1.00000
    220     -14.1430      1.00000
    221     -14.1429      1.00000
    222     -14.1403      1.00000
    223     -14.1382      1.00000
    224     -14.1343      1.00000
    225     -14.1327      1.00000
    226     -14.1294      1.00000
    227     -14.1274      1.00000
    228     -14.1245      1.00000
    229     -14.1226      1.00000
    230     -14.1197      1.00000
    231     -14.1176      1.00000
    232     -14.1158      1.00000
    233     -14.1125      1.00000
    234     -14.1102      1.00000
    235     -14.1084      1.00000
    236     -14.1072      1.00000
    237     -14.1047      1.00000
    238     -14.1038      1.00000
    239     -14.0990      1.00000
    240     -14.0970      1.00000
    241     -14.0963      1.00000
    242     -14.0947      1.00000
    243     -14.0930      1.00000
    244     -14.0895      1.00000
    245     -14.0858      1.00000
    246     -14.0848      1.00000
    247     -14.0815      1.00000
    248     -14.0799      1.00000
    249     -14.0783      1.00000
    250     -14.0749      1.00000
    251     -14.0731      1.00000
    252     -14.0721      1.00000
    253     -14.0693      1.00000
    254     -14.0639      1.00000
    255     -14.0625      1.00000
    256     -14.0606      1.00000
    257     -14.0599      1.00000
    258     -14.0544      1.00000
    259     -14.0530      1.00000
    260     -14.0515      1.00000
    261     -14.0465      1.00000
    262     -14.0452      1.00000
    263     -14.0416      1.00000
    264     -14.0395      1.00000
    265     -14.0349      1.00000
    266     -14.0329      1.00000
    267     -14.0303      1.00000
    268     -14.0286      1.00000
    269     -14.0257      1.00000
    270     -14.0230      1.00000
    271     -14.0201      1.00000
    272     -14.0173      1.00000
    273     -14.0141      1.00000
    274     -14.0113      1.00000
    275     -14.0076      1.00000
    276     -14.0054      1.00000
    277     -14.0026      1.00000
    278     -13.9994      1.00000
    279     -13.9957      1.00000
    280     -13.9928      1.00000
    281     -13.9899      1.00000
    282     -13.9864      1.00000
    283     -13.9836      1.00000
    284     -13.9825      1.00000
    285     -13.9769      1.00000
    286     -13.9752      1.00000
    287     -13.9726      1.00000
    288     -13.9702      1.00000
    289     -13.9661      1.00000
    290     -13.9646      1.00000
    291     -13.9619      1.00000
    292     -13.9597      1.00000
    293     -13.9557      1.00000
    294     -13.9532      1.00000
    295     -13.9455      1.00000
    296     -13.9439      1.00000
    297     -13.9402      1.00000
    298     -13.9365      1.00000
    299     -13.9296      1.00000
    300     -13.9275      1.00000
    301     -13.9230      1.00000
    302     -13.9169      1.00000
    303     -13.9121      1.00000
    304     -13.9098      1.00000
    305     -13.9050      1.00000
    306     -13.9018      1.00000
    307     -13.8948      1.00000
    308     -13.8895      1.00000
    309     -13.8879      1.00000
    310     -13.8842      1.00000
    311     -13.8795      1.00000
    312     -13.8756      1.00000
    313     -13.8705      1.00000
    314     -13.8644      1.00000
    315     -13.8613      1.00000
    316     -13.8550      1.00000
    317     -13.8510      1.00000
    318     -13.8463      1.00000
    319     -13.8379      1.00000
    320     -13.8338      1.00000
    321     -13.8251      1.00000
    322     -13.8151      1.00000
    323     -13.8128      1.00000
    324     -13.8068      1.00000
    325     -13.7972      1.00000
    326     -13.7912      1.00000
    327     -13.7859      1.00000
    328     -13.7790      1.00000
    329     -13.7735      1.00000
    330     -13.7652      1.00000
    331     -13.7535      1.00000
    332     -13.7486      1.00000
    333     -13.7373      1.00000
    334     -13.7286      1.00000
    335     -13.7196      1.00000
    336     -13.7181      1.00000
    337     -13.6948      1.00000
    338     -13.6887      1.00000
    339     -13.6732      1.00000
    340     -13.6713      1.00000
    341     -13.6592      1.00000
    342     -13.6553      1.00000
    343     -13.6515      1.00000
    344     -13.6458      1.00000
    345     -13.6330      1.00000
    346     -13.6270      1.00000
    347     -13.6247      1.00000
    348     -13.6219      1.00000
    349     -13.6122      1.00000
    350     -13.6057      1.00000
    351     -13.6028      1.00000
    352     -13.5945      1.00000
    353     -13.5900      1.00000
    354     -13.5878      1.00000
    355     -13.5802      1.00000
    356     -13.5771      1.00000
    357     -13.5701      1.00000
    358     -13.5671      1.00000
    359     -13.5638      1.00000
    360     -13.5561      1.00000
    361     -13.5526      1.00000
    362     -13.5432      1.00000
    363     -13.5403      1.00000
    364     -13.5356      1.00000
    365     -13.5259      1.00000
    366     -13.5191      1.00000
    367     -13.5127      1.00000
    368     -13.5064      1.00000
    369     -13.5027      1.00000
    370     -13.4865      1.00000
    371     -13.4821      1.00000
    372     -13.4720      1.00000
    373     -13.4532      1.00000
    374     -13.4490      1.00000
    375     -13.4384      1.00000
    376     -13.4168      1.00000
    377     -13.4061      1.00000
    378     -13.3911      1.00000
    379     -13.3804      1.00000
    380     -13.3703      1.00000
    381     -13.3497      1.00000
    382     -13.3373      1.00000
    383     -13.3186      1.00000
    384     -13.3036      1.00000
    385     -13.2877      1.00000
    386     -13.2844      1.00000
    387     -13.2695      1.00000
    388     -13.2510      1.00000
    389     -13.2425      1.00000
    390     -13.2217      1.00000
    391     -13.2122      1.00000
    392     -13.1975      1.00000
    393     -13.1675      1.00000
    394     -13.1612      1.00000
    395     -13.1431      1.00000
    396     -13.1283      1.00000
    397     -13.1112      1.00000
    398     -13.0915      1.00000
    399     -13.0538      1.00000
    400     -13.0324      1.00000
    401     -13.0145      1.00000
    402     -13.0023      1.00000
    403     -12.9798      1.00000
    404     -12.9728      1.00000
    405     -12.9419      1.00000
    406     -12.9317      1.00000
    407     -12.8909      1.00000
    408     -12.8508      1.00000
    409     -12.6990      1.00000
    410     -12.6029      1.00000
    411     -12.3233      1.00000
    412      -6.6977      1.00000
    413      -6.5094      1.00000
    414      -6.4685      1.00000
    415      -6.4204      1.00000
    416      -6.3874      1.00000
    417      -6.3163      1.00000
    418      -6.2049      1.00000
    419      -6.1736      1.00000
    420      -6.1292      1.00000
    421      -6.0526      1.00000
    422      -6.0108      1.00000
    423      -5.9909      1.00000
    424      -5.9570      1.00000
    425      -5.9403      1.00000
    426      -5.9146      1.00000
    427      -5.8687      1.00000
    428      -5.8414      1.00000
    429      -5.8034      1.00000
    430      -5.7908      1.00000
    431      -5.7764      1.00000
    432      -5.7333      1.00000
    433      -5.7190      1.00000
    434      -5.6856      1.00000
    435      -5.6663      1.00000
    436      -5.6392      1.00000
    437      -5.5775      1.00000
    438      -5.5523      1.00000
    439      -5.4951      1.00000
    440      -5.4554      1.00000
    441      -5.4193      1.00000
    442      -5.3754      1.00000
    443      -5.3431      1.00000
    444      -5.3154      1.00000
    445      -5.2719      1.00000
    446      -5.2440      1.00000
    447      -5.1997      1.00000
    448      -5.1740      1.00000
    449      -5.1069      1.00000
    450      -5.0637      1.00000
    451      -5.0270      1.00000
    452      -4.9676      1.00000
    453      -4.9208      1.00000
    454      -4.8776      1.00000
    455      -4.8189      1.00000
    456      -4.7720      1.00000
    457      -4.6772      1.00000
    458      -4.6392      1.00000
    459      -4.6033      1.00000
    460      -4.5832      1.00000
    461      -4.5607      1.00000
    462      -4.5314      1.00000
    463      -4.5000      1.00000
    464      -4.4733      1.00000
    465      -4.4365      1.00000
    466      -4.3848      1.00000
    467      -4.3510      1.00000
    468      -4.3066      1.00000
    469      -4.2868      1.00000
    470      -4.2346      1.00000
    471      -4.1956      1.00000
    472      -4.1144      1.00000
    473      -4.0960      1.00000
    474      -4.0309      1.00000
    475      -4.0026      1.00000
    476      -3.9863      1.00000
    477      -3.9586      1.00000
    478      -3.9208      1.00000
    479      -3.8638      1.00000
    480      -3.8301      1.00000
    481      -3.7889      1.00000
    482      -3.7706      1.00000
    483      -3.7392      1.00000
    484      -3.7002      1.00000
    485      -3.6752      1.00000
    486      -3.6533      1.00000
    487      -3.5981      1.00000
    488      -3.5429      1.00000
    489      -3.5145      1.00000
    490      -3.4903      1.00000
    491      -3.4844      1.00000
    492      -3.4669      1.00000
    493      -3.4510      1.00000
    494      -3.4254      1.00000
    495      -3.4043      1.00000
    496      -3.3755      1.00000
    497      -3.3404      1.00000
    498      -3.3264      1.00000
    499      -3.2936      1.00000
    500      -3.2606      1.00000
    501      -3.2198      1.00000
    502      -3.1839      1.00000
    503      -3.1378      1.00000
    504      -3.1116      1.00000
    505      -3.0792      1.00000
    506      -3.0605      1.00000
    507      -3.0212      1.00000
    508      -2.9913      1.00000
    509      -2.9442      1.00000
    510      -2.9295      1.00000
    511      -2.8936      1.00000
    512      -2.8755      1.00000
    513      -2.8555      1.00000
    514      -2.8278      1.00000
    515      -2.8100      1.00000
    516      -2.7861      1.00000
    517      -2.7311      1.00000
    518      -2.7046      1.00000
    519      -2.6854      1.00000
    520      -2.6770      1.00000
    521      -2.6474      1.00000
    522      -2.6315      1.00000
    523      -2.6203      1.00000
    524      -2.5927      1.00000
    525      -2.5643      1.00000
    526      -2.5513      1.00000
    527      -2.5239      1.00000
    528      -2.4964      1.00000
    529      -2.4769      1.00000
    530      -2.4526      1.00000
    531      -2.4240      1.00000
    532      -2.4004      1.00000
    533      -2.3886      1.00000
    534      -2.3679      1.00000
    535      -2.3469      1.00000
    536      -2.3287      1.00000
    537      -2.2981      1.00000
    538      -2.2825      1.00000
    539      -2.2603      1.00000
    540      -2.2304      1.00000
    541      -2.2244      1.00000
    542      -2.1910      1.00000
    543      -2.1819      1.00000
    544      -2.1645      1.00000
    545      -2.1461      1.00000
    546      -2.1318      1.00000
    547      -2.1050      1.00000
    548      -2.0768      1.00000
    549      -2.0503      1.00000
    550      -2.0176      1.00000
    551      -1.9988      1.00000
    552      -1.9664      1.00000
    553      -1.9529      1.00000
    554      -1.9027      1.00000
    555      -1.8746      1.00000
    556      -1.8639      1.00000
    557      -1.8411      1.00000
    558      -1.8030      1.00000
    559      -1.7673      1.00000
    560      -1.7601      1.00000
    561      -1.7261      1.00000
    562      -1.6793      1.00000
    563      -1.6668      1.00000
    564      -1.6411      1.00000
    565      -1.6276      1.00000
    566      -1.6196      1.00000
    567      -1.6062      1.00000
    568      -1.5950      1.00000
    569      -1.5819      1.00000
    570      -1.5496      1.00000
    571      -1.5292      1.00000
    572      -1.5146      1.00000
    573      -1.4945      1.00000
    574      -1.4704      1.00000
    575      -1.4483      1.00000
    576      -1.4411      1.00000
    577      -1.4076      1.00000
    578      -1.3824      1.00000
    579      -1.3380      1.00000
    580      -1.3347      1.00000
    581      -1.3150      1.00000
    582      -1.3000      1.00000
    583      -1.2742      1.00000
    584      -1.2660      1.00000
    585      -1.2563      1.00000
    586      -1.2326      1.00000
    587      -1.2124      1.00000
    588      -1.1866      1.00000
    589      -1.1751      1.00000
    590      -1.1365      1.00000
    591      -1.1229      1.00000
    592      -1.0881      1.00000
    593      -1.0670      1.00000
    594      -1.0485      1.00000
    595      -1.0293      1.00000
    596      -1.0095      1.00000
    597      -0.9906      1.00000
    598      -0.9826      1.00000
    599      -0.9453      1.00000
    600      -0.9303      1.00000
    601      -0.9004      1.00000
    602      -0.8811      1.00000
    603      -0.8607      1.00000
    604      -0.8490      1.00000
    605      -0.8150      1.00000
    606      -0.7932      1.00000
    607      -0.7796      1.00000
    608      -0.7489      1.00000
    609      -0.7387      1.00000
    610      -0.7184      1.00000
    611      -0.7065      1.00000
    612      -0.6912      1.00000
    613      -0.6841      1.00000
    614      -0.6655      1.00000
    615      -0.6434      1.00000
    616      -0.6270      1.00000
    617      -0.6186      1.00000
    618      -0.5892      1.00000
    619      -0.5740      1.00000
    620      -0.5613      1.00000
    621      -0.5515      1.00000
    622      -0.5396      1.00000
    623      -0.5243      1.00000
    624      -0.4896      1.00000
    625      -0.4767      1.00000
    626      -0.4546      1.00000
    627      -0.4427      1.00000
    628      -0.4310      1.00000
    629      -0.4229      1.00000
    630      -0.4015      1.00000
    631      -0.3911      1.00000
    632      -0.3821      1.00000
    633      -0.3665      1.00000
    634      -0.3571      1.00000
    635      -0.3313      1.00000
    636      -0.3209      1.00000
    637      -0.3066      1.00000
    638      -0.2844      1.00000
    639      -0.2753      1.00000
    640      -0.2625      1.00000
    641      -0.2542      1.00000
    642      -0.2398      1.00000
    643      -0.2210      1.00000
    644      -0.2111      1.00000
    645      -0.2021      1.00000
    646      -0.1890      1.00000
    647      -0.1787      1.00000
    648      -0.1653      1.00000
    649      -0.1515      1.00000
    650      -0.1343      1.00000
    651      -0.1216      1.00000
    652      -0.1139      1.00000
    653      -0.1028      1.00000
    654      -0.0948      1.00000
    655      -0.0824      1.00000
    656      -0.0604      1.00000
    657      -0.0488      1.00000
    658      -0.0368      1.00000
    659      -0.0307      1.00000
    660      -0.0184      1.00000
    661      -0.0010      1.00000
    662       0.0087      1.00000
    663       0.0229      1.00000
    664       0.0346      1.00000
    665       0.0460      1.00000
    666       0.0597      1.00000
    667       0.0727      1.00000
    668       0.0978      1.00000
    669       0.1234      1.00000
    670       0.1443      1.00000
    671       0.1520      1.00000
    672       0.1791      1.00000
    673       0.1945      1.00000
    674       0.2077      1.00000
    675       0.2234      1.00000
    676       0.2354      1.00000
    677       0.2477      1.00000
    678       0.2657      1.00000
    679       0.2822      1.00000
    680       0.3224      1.00000
    681       0.3412      1.00000
    682       0.3642      1.00000
    683       0.3840      1.00000
    684       0.4177      1.00000
    685       0.4366      1.00000
    686       0.4486      1.00000
    687       0.4808      1.00000
    688       0.5022      1.00000
    689       0.5103      1.00000
    690       0.5561      1.00000
    691       0.5815      1.00000
    692       0.6022      1.00000
    693       0.6779      1.00000
[...]
      1.95979     12.12062      0.12874        -0.000434      0.002879     -0.000632
      5.89058     12.12598      0.02959        -0.005648      0.011076     -0.001822
      3.97772      1.48116      9.99911        -0.004445      0.001946      0.000301
      5.87522      0.03338      5.82435         0.004314      0.001386      0.004689
      5.97235     12.13003      8.63869        -0.000084     -0.001532      0.004248
      9.83932      3.00880      5.93579         0.000396      0.000439      0.000065
      0.03324      4.55508     10.08557         0.009494     -0.000836      0.000439
     11.80509      4.55729      4.38306         0.000878     -0.000095     -0.002487
      9.96769      3.00403      8.53506         0.004075     -0.002941      0.003866
      1.89432      3.02881      5.91833        -0.002873      0.004773     -0.000462
      3.88670      7.56565      7.36782        -0.005443      0.001972      0.005203
      3.80190      4.55555      1.48629        -0.003289      0.000700      0.000831
      5.88932      3.08869      2.94293        -0.006620      0.001231     -0.002339
      5.89412      3.01706      0.01677        -0.001123     -0.010059      0.002364
      4.02762      4.56200      4.09743        -0.004335      0.000191     -0.008161
      7.87258      4.55640     -1.37599         0.000995     -0.001209      0.008727
      2.01142      3.01574      2.73366        -0.000117     -0.000099     -0.003471
      9.86098      2.94179      0.11794        -0.001484      0.001216      0.001341
      0.00217      4.55764      4.30496        -0.005241      0.000091     -0.002002
     11.82869      4.55526     -1.43358         0.007913     -0.000889     -0.002648
      9.95475      3.00242      2.74749        -0.007401     -0.001160     -0.000835
      1.91207      3.00564      0.11851         0.007078      0.000845      0.005449
      7.98622      1.50215      7.10279         0.002669     -0.005496      0.002778
      3.89288      1.52378      7.36569        -0.009148      0.001470      0.006605
      7.83162      4.56171      4.57779        -0.001562      0.000140      0.006090
      7.99364      7.58832      7.10915         0.000044      0.004543      0.005310
      1.94710      9.11973      0.13004         0.001322     -0.000598      0.003312
      9.93836      9.10863      2.73486         0.001551     -0.000646     -0.001134
     11.82932     10.62762     -1.42812        -0.002804      0.002285      0.000878
      0.04183     10.62596      4.29749        -0.004452      0.000662      0.001823
      9.81506      9.12132      0.12626         0.000145     -0.001362      0.001506
      2.04949      9.12124      2.74559         0.000181      0.001071     -0.003611
      7.87141     10.62379     -1.30817         0.002726      0.000977     -0.000253
      4.00633     10.62087      4.19679         0.000423     -0.000163     -0.006238
      5.89177      9.10615      0.02753        -0.005058     -0.003460     -0.000321
      5.98245      9.04585      2.85002        -0.000344     -0.002456      0.000305
      3.90057     10.62058      1.58806         0.002538      0.000854     -0.003553
      7.96688     10.61910      1.29782         0.003402     -0.000222     -0.002812
      1.93258      9.11171      5.92980        -0.004216     -0.000271     -0.004684
      9.92022      9.11550      8.52988         0.005936      0.001668     -0.004541
     11.82608     10.62537      4.37239         0.002398      0.001450     -0.001574
      0.03438     10.62681     10.08728         0.002910      0.003044     -0.003830
      9.81477      9.11547      5.91619         0.000891      0.001456     -0.002228
      2.05220      9.10790      8.53631         0.000518     -0.001845      0.001612
      7.84694     10.62028      4.47115        -0.001750     -0.000827      0.002849
      3.98857     10.62413      9.97663        -0.003898      0.000450      0.001643
      5.87620      9.04847      5.82136         0.003749      0.000210      0.003717
      5.97148      9.09663      8.64104         0.000445     -0.000848      0.005256
      3.89590     10.61868      7.36760        -0.000350      0.000681      0.007296
      7.96120     10.62056      7.07836         0.002702     -0.001056     -0.000035
 -----------------------------------------------------------------------------------
    total drift:                                0.072743     -0.297722      0.257500


--------------------------------------------------------------------------------------------------------



  FREE ENERGIE OF THE ION-ELECTRON SYSTEM (eV)
  ---------------------------------------------------
  free  energy   TOTEN  =     -1492.11166161 eV

  energy  without entropy=    -1492.11166161  energy(sigma->0) =    -1492.11166161
 
 d Force = 0.1690083E-05[ 0.232E-05, 0.106E-05]  d Energy = 0.3851877E-04-0.368E-04
 d Force =-0.9671599E-02[-0.968E-02,-0.966E-02]  d Ewald  =-0.9670197E-02-0.140E-05


--------------------------------------------------------------------------------------------------------


    POTLOK:  cpu time    0.4948: real time    0.4949


--------------------------------------------------------------------------------------------------------




--------------------------------------------------------------------------------------------------------


  
 reached required accuracy - stopping structural energy minimisation
 writing wavefunctions
     LOOP+:  cpu time  613.5189: real time  614.1683
    4ORBIT:  cpu time    0.0000: real time    0.0000
 


 total charge     
 
# of ion     s       p       d       tot
----------------------------------------
  1        0.675   0.852  10.288  11.815
  2        0.759   1.027  10.315  12.101
  3        0.750   0.983  10.290  12.023
  4        0.757   1.015  10.307  12.080
  5        0.658   0.828  10.271  11.756
  6        0.659   0.837  10.278  11.775
  7        0.759   1.024  10.314  12.097
  8        0.761   1.027  10.314  12.102
  9        0.663   0.844  10.281  11.789
 10        0.758   1.016  10.309  12.082
 11        0.759   1.019  10.309  12.086
 12        0.658   0.836  10.278  11.772
 13        0.661   0.834  10.273  11.767
 14        0.660   0.838  10.278  11.775
 15        0.756   1.010  10.304  12.070
 16        0.760   1.026  10.314  12.100
 17        0.675   0.841  10.270  11.787
 18        0.664   0.846  10.283  11.793
 19        0.757   1.017  10.310  12.084
 20        0.679   0.856  10.282  11.817
 21        0.662   0.828  10.270  11.761
 22        0.758   1.021  10.311  12.090
 23        0.680   0.866  10.290  11.836
 24        0.748   0.982  10.290  12.021
 25        0.659   0.836  10.278  11.772
 26        0.748   0.973  10.283  12.004
 27        0.758   1.019  10.310  12.087
 28        0.759   1.025  10.313  12.097
 29        0.659   0.841  10.282  11.782
 30        0.660   0.842  10.281  11.784
 31        0.746   0.974  10.285  12.006
 32        0.759   1.024  10.313  12.096
 33        0.661   0.836  10.274  11.772
 34        0.657   0.832  10.275  11.764
 35        0.757   1.017  10.309  12.083
 36        0.664   0.839  10.278  11.782
 37        0.678   0.855  10.282  11.815
 38        0.762   1.034  10.320  12.116
 39        0.761   1.031  10.317  12.110
 40        0.668   0.850  10.280  11.798
 41        0.679   0.866  10.290  11.836
 42        0.667   0.853  10.283  11.803
 43        0.759   1.024  10.313  12.097
 44        0.758   1.021  10.311  12.090
 45        0.660   0.842  10.281  11.783
 46        0.658   0.830  10.272  11.760
 47        0.665   0.844  10.276  11.785
 48        0.757   1.016  10.308  12.082
 49        0.757   1.016  10.308  12.081
 50        0.659   0.836  10.277  11.772
 51        0.658   0.836  10.278  11.771
 52        0.751   0.992  10.294  12.037
 53        0.759   1.021  10.311  12.091
 54        0.660   0.826  10.267  11.752
 55        0.655   0.821  10.267  11.743
 56        0.758   1.016  10.307  12.080
 57        0.756   1.010  10.304  12.071
 58        0.657   0.833  10.275  11.765
 59        0.659   0.837  10.277  11.773
 60        0.758   1.016  10.307  12.081
 61        0.752   0.995  10.296  12.042
 62        0.657   0.826  10.270  11.753
 63        0.659   0.823  10.265  11.747
 64        1.585   3.587   0.000   5.172
 65        1.626   3.318   0.000   4.944
 66        1.577   3.618   0.000   5.195
 67        1.581   3.591   0.000   5.172
 68        1.579   3.617   0.000   5.195
 69        1.578   3.621   0.000   5.199
 70        1.577   3.621   0.000   5.198
 71        1.583   3.583   0.000   5.166
 72        1.580   3.589   0.000   5.169
 73        1.581   3.581   0.000   5.161
 74        1.586   3.563   0.000   5.149
 75        1.585   3.580   0.000   5.165
 76        1.578   3.618   0.000   5.196
 77        1.578   3.613   0.000   5.191
 78        1.580   3.595   0.000   5.175
 79        1.580   3.593   0.000   5.172
 80        1.583   3.571   0.000   5.154
 81        1.584   3.578   0.000   5.162
 82        1.582   3.591   0.000   5.174
 83        1.584   3.576   0.000   5.160
 84        1.581   3.580   0.000   5.161
 85        1.580   3.577   0.000   5.158
 86        1.585   3.577   0.000   5.162
 87        1.586   3.582   0.000   5.168
 88        1.578   3.618   0.000   5.196
 89        1.579   3.597   0.000   5.176
 90        1.581   3.565   0.000   5.147
 91        1.588   3.572   0.000   5.160
 92        1.585   3.559   0.000   5.144
 93        1.585   3.577   0.000   5.161
 94        1.585   3.576   0.000   5.161
 95        1.579   3.619   0.000   5.197
 96        1.578   3.614   0.000   5.193
 97        1.581   3.588   0.000   5.168
 98        1.580   3.591   0.000   5.172
 99        1.583   3.571   0.000   5.154
100        1.584   3.578   0.000   5.163
101        1.581   3.581   0.000   5.161
102        1.577   3.601   0.000   5.178
103        1.581   3.580   0.000   5.161
104        1.580   3.578   0.000   5.158
105        1.585   3.578   0.000   5.163
106        1.585   3.580   0.000   5.165
107        1.579   3.619   0.000   5.198
108        1.579   3.622   0.000   5.201
109        1.580   3.590   0.000   5.170
110        1.581   3.589   0.000   5.169
111        1.579   3.622   0.000   5.200
112        1.581   3.590   0.000   5.171
113        1.577   3.603   0.000   5.180
114        1.578   3.619   0.000   5.197
115        1.584   3.576   0.000   5.160
116        1.578   3.617   0.000   5.196
117        1.578   3.620   0.000   5.198
118        1.579   3.592   0.000   5.172
119        1.579   3.590   0.000   5.169
120        1.583   3.569   0.000   5.152
121        1.585   3.584   0.000   5.169
122        1.582   3.585   0.000   5.167
123        1.578   3.614   0.000   5.192
124        1.589   3.565   0.000   5.154
125        1.583   3.580   0.000   5.163
126        1.584   3.573   0.000   5.157
127        1.586   3.580   0.000   5.166
128        1.579   3.601   0.000   5.180
129        1.578   3.616   0.000   5.194
130        1.579   3.594   0.000   5.173
131        1.580   3.588   0.000   5.168
132        1.584   3.575   0.000   5.160
133        1.583   3.569   0.000   5.152
134        1.589   3.568   0.000   5.157
135        1.584   3.575   0.000   5.159
136        1.580   3.585   0.000   5.165
137        1.579   3.586   0.000   5.165
138        1.578   3.616   0.000   5.194
139        1.578   3.615   0.000   5.194
140        1.584   3.575   0.000   5.159
141        1.584   3.573   0.000   5.157
142        1.580   3.579   0.000   5.159
143        1.580   3.586   0.000   5.166
144        1.578   3.617   0.000   5.195
145        1.577   3.597   0.000   5.174
146        1.585   3.571   0.000   5.156
147        1.584   3.574   0.000   5.158
148        1.580   3.588   0.000   5.167
149        1.580   3.584   0.000   5.164
150        1.578   3.616   0.000   5.194
151        1.578   3.615   0.000   5.193
152        1.584   3.571   0.000   5.155
153        1.584   3.572   0.000   5.156
154        1.580   3.585   0.000   5.165
155        1.580   3.586   0.000   5.166
156        1.577   3.599   0.000   5.176
157        1.577   3.614   0.000   5.191
158        1.584   3.576   0.000   5.160
159        1.585   3.570   0.000   5.154
------------------------------------------------
tot      196.440 402.477 648.3481247.265
 


 magnetization (x)
 
# of ion     s       p       d       tot
----------------------------------------
  1       -0.000  -0.000  -0.000  -0.000
  2        0.000   0.000   0.000   0.000
  3       -0.000  -0.000  -0.000  -0.000
  4       -0.000  -0.000  -0.000  -0.000
  5       -0.000  -0.000   0.000  -0.000
  6       -0.000   0.000   0.000   0.000
  7       -0.000  -0.000  -0.000  -0.000
  8       -0.000   0.000   0.001   0.001
  9       -0.000  -0.000  -0.000  -0.000
 10       -0.000  -0.000  -0.000  -0.000
 11       -0.000   0.000   0.001   0.001
 12       -0.000  -0.000   0.000  -0.000
 13       -0.000  -0.000   0.000  -0.000
 14       -0.000  -0.000   0.000  -0.000
 15       -0.000  -0.000  -0.000  -0.000
 16       -0.000  -0.000   0.000  -0.000
 17       -0.000  -0.000   0.000  -0.000
 18       -0.000  -0.000   0.000  -0.000
 19        0.000   0.003   0.002   0.005
 20       -0.000  -0.000   0.000  -0.000
 21       -0.000   0.000   0.000   0.000
 22       -0.000  -0.000  -0.000  -0.000
 23       -0.000  -0.000   0.000  -0.000
 24       -0.000  -0.000   0.000  -0.000
 25       -0.000  -0.000  -0.000  -0.000
 26       -0.000  -0.000  -0.000  -0.000
 27       -0.000  -0.000  -0.000  -0.000
 28       -0.000  -0.000   0.000  -0.000
 29       -0.000  -0.000   0.000  -0.000
 30       -0.000  -0.000   0.000  -0.000
 31       -0.000  -0.000   0.000  -0.000
 32       -0.000  -0.000  -0.000  -0.000
 33       -0.000  -0.000  -0.000  -0.000
 34       -0.000  -0.000  -0.000  -0.000
 35       -0.000  -0.000  -0.000  -0.000
 36       -0.000   0.000   0.000   0.000
 37       -0.000   0.000   0.000   0.000
 38       -0.000  -0.000   0.000  -0.000
 39        0.000  -0.000   0.000   0.000
 40       -0.005  -0.006   0.001  -0.011
 41       -0.000   0.000   0.000   0.000
 42       -0.005  -0.006   0.002  -0.009
 43       -0.000  -0.000   0.000  -0.000
 44       -0.000  -0.000   0.000  -0.000
 45       -0.000   0.000   0.000   0.000
 46       -0.000  -0.000   0.000  -0.000
 47       -0.005  -0.006   0.002  -0.009
 48        0.000   0.000   0.000   0.000
 49       -0.000  -0.000   0.000  -0.000
 50       -0.000  -0.000   0.000  -0.000
 51       -0.000  -0.000  -0.000  -0.000
 52       -0.000  -0.000  -0.000  -0.000
 53        0.000   0.000   0.000   0.000
 54       -0.000  -0.000  -0.000  -0.000
 55       -0.000  -0.000  -0.000  -0.000
 56       -0.000  -0.000   0.000  -0.000
 57       -0.000  -0.000   0.000  -0.000
 58       -0.000  -0.000   0.000  -0.000
 59       -0.000  -0.000   0.000  -0.000
 60       -0.000  -0.000  -0.000  -0.000
 61       -0.000  -0.000  -0.000  -0.000
 62       -0.000  -0.000  -0.000  -0.000
 63       -0.000  -0.000   0.000  -0.000
 64       -0.000  -0.000   0.000  -0.000
 65        0.014   0.712   0.000   0.726
 66       -0.000  -0.001   0.000  -0.001
 67       -0.000   0.000   0.000   0.000
 68        0.000   0.001   0.000   0.001
 69        0.000   0.000   0.000   0.000
 70       -0.000  -0.001   0.000  -0.001
 71        0.000   0.008   0.000   0.008
 72        0.000   0.000   0.000   0.000
 73        0.000   0.001   0.000   0.001
 74        0.001   0.034   0.000   0.035
 75       -0.000  -0.000   0.000  -0.000
 76        0.000   0.002   0.000   0.002
 77       -0.000   0.001   0.000   0.001
 78       -0.000   0.000   0.000   0.000
 79       -0.000  -0.000   0.000  -0.000
 80        0.000   0.000   0.000   0.000
 81       -0.000  -0.000   0.000  -0.000
 82       -0.000   0.000   0.000   0.000
 83        0.000   0.008   0.000   0.009
 84       -0.000  -0.000   0.000  -0.000
 85       -0.000  -0.000   0.000  -0.000
 86       -0.000   0.000   0.000   0.000
 87       -0.000   0.000   0.000   0.000
 88       -0.000  -0.000   0.000  -0.000
 89       -0.000   0.000   0.000   0.000
 90        0.002   0.038   0.000   0.039
 91        0.000   0.000   0.000   0.000
 92        0.001   0.032   0.000   0.034
 93       -0.000   0.000   0.000   0.000
 94       -0.000   0.000   0.000   0.000
 95        0.000   0.001   0.000   0.002
 96       -0.000   0.000   0.000   0.000
 97        0.000   0.000   0.000   0.000
 98       -0.000  -0.000   0.000  -0.000
 99        0.000   0.000   0.000   0.000
100       -0.000  -0.000   0.000  -0.000
101        0.000   0.001   0.000   0.001
102       -0.000  -0.000   0.000  -0.000
103       -0.000  -0.000   0.000  -0.000
104       -0.000  -0.000   0.000  -0.000
105       -0.000  -0.000   0.000  -0.000
106       -0.000   0.000   0.000  -0.000
107       -0.000  -0.000   0.000  -0.000
108        0.000   0.000   0.000   0.000
109       -0.000   0.000   0.000   0.000
110       -0.000   0.000   0.000   0.000
111       -0.000  -0.000   0.000  -0.000
112        0.000   0.000   0.000   0.000
113       -0.000  -0.000   0.000  -0.000
114       -0.000  -0.000   0.000  -0.000
115       -0.000  -0.000   0.000  -0.000
116       -0.000   0.000   0.000  -0.000
117       -0.000   0.000   0.000   0.000
118       -0.000   0.000   0.000   0.000
119       -0.000  -0.000   0.000  -0.000
120       -0.000  -0.001   0.000  -0.001
121        0.000   0.003   0.000   0.003
122       -0.000   0.000   0.000   0.000
123        0.000   0.001   0.000   0.001
124        0.000   0.003   0.000   0.004
125       -0.000  -0.000   0.000  -0.000
126       -0.000   0.000   0.000   0.000
127       -0.000   0.000   0.000   0.000
128       -0.000  -0.000   0.000  -0.000
129        0.000   0.000   0.000   0.000
130       -0.000   0.000   0.000   0.000
131       -0.000   0.000   0.000   0.000
132       -0.000  -0.000   0.000  -0.000
133       -0.000  -0.001   0.000  -0.001
134       -0.000   0.000   0.000   0.000
135       -0.000  -0.000   0.000  -0.000
136       -0.000   0.000   0.000   0.000
137       -0.000   0.000   0.000   0.000
138       -0.000  -0.000   0.000  -0.000
139       -0.000  -0.000   0.000  -0.000
140       -0.000   0.000   0.000  -0.000
141       -0.000  -0.000   0.000  -0.000
142       -0.000   0.000   0.000   0.000
143       -0.000  -0.000   0.000  -0.000
144       -0.000  -0.000   0.000  -0.000
145       -0.000  -0.000   0.000  -0.000
146       -0.000   0.000   0.000   0.000
147       -0.000   0.000   0.000   0.000
148       -0.000  -0.000   0.000  -0.000
149        0.000   0.000   0.000   0.000
150       -0.000  -0.000   0.000  -0.000
151       -0.000   0.000   0.000   0.000
152       -0.000   0.000   0.000   0.000
153       -0.000   0.000   0.000   0.000
154       -0.000   0.000   0.000   0.000
155       -0.000  -0.000   0.000  -0.000
156       -0.000  -0.000   0.000  -0.000
157       -0.000  -0.000   0.000  -0.000
158       -0.000  -0.000   0.000  -0.000
159       -0.000   0.000   0.000  -0.000
------------------------------------------------
tot        0.001   0.828   0.009   0.838
 

 total amount of memory used by VASP on root node   109717. kBytes
========================================================================

   base      :      30000. kBytes
   nonlr-proj:      42183. kBytes
   fftplans  :       1403. kBytes
   grid      :      18562. kBytes
   one-center:       4945. kBytes
   HF        :        129. kBytes
   wavefun   :      12495. kBytes
 
  
  
 General timing and accounting informations for this job:
 ========================================================
  
                  Total CPU time used (sec):     2327.574
                            User time (sec):     2268.288
                          System time (sec):       59.286
                         Elapsed time (sec):     2337.522
  
                   Maximum memory used (kb):      705432.
                   Average memory used (kb):           0.
  
                          Minor page faults:      7686861
                          Major page faults:           38
                 Voluntary context switches:        30633
