 vasp.5.4.1 05Feb16 (build May 04 2017 01:30:51) complex                        
  
 executed on      LLNL_Quartz_ifc date 2018.08.14  17:27:53
 running on  288 total cores
 distrk:  each k-point on  288 cores,    1 groups
 distr:  one band on NCORES_PER_BAND=   1 cores,  288 groups


--------------------------------------------------------------------------------------------------------


 INCAR:
 POTCAR:   PAW_PBE Ga_d 06Sep2000                 
 POTCAR:   PAW_PBE O 08Apr2002                    

 ----------------------------------------------------------------------------- 
|                                                                             |
|           W    W    AA    RRRRR   N    N  II  N    N   GGGG   !!!           |
|           W    W   A  A   R    R  NN   N  II  NN   N  G    G  !!!           |
|           W    W  A    A  R    R  N N  N  II  N N  N  G       !!!           |
|           W WW W  AAAAAA  RRRRR   N  N N  II  N  N N  G  GGG   !            |
|           WW  WW  A    A  R   R   N   NN  II  N   NN  G    G                |
|           W    W  A    A  R    R  N    N  II  N    N   GGGG   !!!           |
|                                                                             |
|      For optimal performance we recommend to set                            |
|        NCORE= 4 - approx SQRT( number of cores)                             |
|      NCORE specifies how many cores store one orbital (NPAR=cpu/NCORE).     |
|      This setting can  greatly improve the performance of VASP for DFT.     |
|      The default, NPAR=number of cores might be grossly inefficient         |
|      on modern multi-core architectures or massively parallel machines.     |
|      Do your own testing !!!!                                               |
|      Unfortunately you need to use the default for GW and RPA calculations. |
|      (for HF NCORE is supported but not extensively tested yet)             |
|                                                                             |
 ----------------------------------------------------------------------------- 

 POTCAR:   PAW_PBE Ga_d 06Sep2000                 
   VRHFIN =Ga: s2p1                                                             
   LEXCH  = PE                                                                  
   EATOM  =  2149.0616 eV,  157.9516 Ry                                         
                                                                                
   TITEL  = PAW_PBE Ga_d 06Sep2000                                              
   LULTRA =        F    use ultrasoft PP ?                                      
   IUNSCR =        1    unscreen: 0-lin 1-nonlin 2-no                           
   RPACOR =    2.000    partial core radius                                     
   POMASS =   69.723; ZVAL   =   13.000    mass and valenz                      
   RCORE  =    2.300    outmost cutoff radius                                   
   RWIGS  =    2.300; RWIGS  =    1.217    wigner-seitz radius (au A)           
   ENMAX  =  282.697; ENMIN  =  212.022 eV                                      
   ICORE  =        3    local potential                                         
   LCOR   =        T    correct aug charges                                     
   LPAW   =        T    paw PP                                                  
   EAUG   =  490.690                                                            
   DEXC   =    -.001                                                            
   RMAX   =    2.742    core radius for proj-oper                               
   RAUG   =    1.300    factor for augmentation sphere                          
   RDEP   =    2.413    radius for radial grids                                 
   QCUT   =   -4.558; QGAM   =    9.117    optimization parameters              
                                                                                
   Description                                                                  
     l     E      TYP  RCUT    TYP  RCUT                                        
     2   .000     23  2.300                                                     
     2  -.400     23  2.300                                                     
     0   .000     23  2.300                                                     
     0   .000     23  2.300                                                     
     1   .000     23  2.300                                                     
     1   .000     23  2.300                                                     
     3  -.100      7  2.300                                                     
  local pseudopotential read in
  partial core-charges read in
  atomic valenz-charges read in
  non local Contribution for L=           2  read in
    real space projection operators read in
  non local Contribution for L=           2  read in
    real space projection operators read in
  non local Contribution for L=           0  read in
    real space projection operators read in
  non local Contribution for L=           0  read in
    real space projection operators read in
  non local Contribution for L=           1  read in
    real space projection operators read in
  non local Contribution for L=           1  read in
    real space projection operators read in
    PAW grid and wavefunctions read in
 
   number of l-projection  operators is LMAX  =           6
   number of lm-projection operators is LMMAX =          18
 
 POTCAR:   PAW_PBE O 08Apr2002                    
   VRHFIN =O: s2p4                                                              
   LEXCH  = PE                                                                  
   EATOM  =   432.3788 eV,   31.7789 Ry                                         
                                                                                
   TITEL  = PAW_PBE O 08Apr2002                                                 
   LULTRA =        F    use ultrasoft PP ?                                      
   IUNSCR =        0    unscreen: 0-lin 1-nonlin 2-no                           
   RPACOR =     .000    partial core radius                                     
   POMASS =   16.000; ZVAL   =    6.000    mass and valenz                      
   RCORE  =    1.520    outmost cutoff radius                                   
   RWIGS  =    1.550; RWIGS  =     .820    wigner-seitz radius (au A)           
   ENMAX  =  400.000; ENMIN  =  300.000 eV                                      
   ICORE  =        2    local potential                                         
   LCOR   =        T    correct aug charges                                     
   LPAW   =        T    paw PP                                                  
   EAUG   =  605.392                                                            
   DEXC   =     .000                                                            
   RMAX   =    2.264    core radius for proj-oper                               
   RAUG   =    1.300    factor for augmentation sphere                          
   RDEP   =    1.550    radius for radial grids                                 
   QCUT   =   -5.520; QGAM   =   11.041    optimization parameters              
                                                                                
   Description                                                                  
     l     E      TYP  RCUT    TYP  RCUT                                        
     0   .000     23  1.200                                                     
     0  -.700     23  1.200                                                     
     1   .000     23  1.520                                                     
     1   .600     23  1.520                                                     
     2   .000      7  1.500                                                     
  local pseudopotential read in
  atomic valenz-charges read in
  non local Contribution for L=           0  read in
    real space projection operators read in
  non local Contribution for L=           0  read in
    real space projection operators read in
  non local Contribution for L=           1  read in
    real space projection operators read in
  non local Contribution for L=           1  read in
    real space projection operators read in
    PAW grid and wavefunctions read in
 
   number of l-projection  operators is LMAX  =           4
   number of lm-projection operators is LMMAX =           8
 
 Optimization of the real space projectors (new method)

 maximal supplied QI-value         = 16.25
 optimisation between [QCUT,QGAM] = [ 10.24, 20.48] = [ 29.35,117.42] Ry 
 Optimized for a Real-space Cutoff    1.38 Angstroem

   l    n(q)    QCUT    max X(q) W(low)/X(q) W(high)/X(q)  e(spline) 
   2      7    10.239     6.328    0.33E-04    0.68E-04    0.30E-07
   2      7    10.239     9.625    0.20E-03    0.23E-03    0.80E-07
   0      8    10.239     9.711    0.17E-04    0.17E-04    0.13E-07
   0      8    10.239    32.764    0.56E-04    0.14E-03    0.62E-07
   1      8    10.239     7.413    0.78E-04    0.28E-04    0.38E-07
   1      8    10.239    31.472    0.43E-03    0.30E-03    0.73E-07
 Optimization of the real space projectors (new method)

 maximal supplied QI-value         = 24.76
 optimisation between [QCUT,QGAM] = [ 10.15, 20.30] = [ 28.85,115.39] Ry 
 Optimized for a Real-space Cutoff    1.30 Angstroem

   l    n(q)    QCUT    max X(q) W(low)/X(q) W(high)/X(q)  e(spline) 
   0      8    10.150     4.192    0.55E-04    0.58E-04    0.78E-07
   0      8    10.150     8.473    0.46E-03    0.68E-03    0.23E-06
   1      7    10.150     2.474    0.11E-03    0.93E-04    0.33E-07
   1      7    10.150     3.912    0.46E-03    0.50E-03    0.15E-06
 PAW_PBE Ga_d 06Sep2000                 :
 energy of atom  1       EATOM=-2149.0616
 kinetic energy error for atom=    0.0101 (will be added to EATOM!!)
 PAW_PBE O 08Apr2002                    :
 energy of atom  2       EATOM= -432.3788
 kinetic energy error for atom=    0.1156 (will be added to EATOM!!)
 
 
 POSCAR: Ga  O                                   
  positions in direct lattice
  velocities in cartesian coordinates
 exchange correlation table for  LEXCH =        8
   RHO(1)=    0.500       N(1)  =     2000
   RHO(2)=  100.500       N(2)  =     4000
 


--------------------------------------------------------------------------------------------------------


 ion  position               nearest neighbor table
   1  0.499  0.376  0.248-  68 1.96 123 1.97  82 1.98 122 1.99 121 2.02  91 2.04
   2  0.091  0.000  0.397-  98 1.82 107 1.83 139 1.83 105 1.86
   3  0.410  0.625  0.605-  84 1.82 156 1.84  71 1.84 120 1.85
   4  0.589  0.625  0.896-  85 1.82  70 1.82 157 1.83 135 1.87
   5  0.160  0.624  0.656-  79 1.93  77 1.94 148 1.94 120 2.00  74 2.02 153 2.10
   6  0.842  0.625  0.845-  76 1.92  78 1.93 149 1.93 135 2.02  75 2.09 152 2.09
   7  0.911  0.500  0.604-  89 1.82  77 1.82 117 1.82  75 1.87
   8  0.092  0.499  0.895-  67 1.82 116 1.83  76 1.84  74 1.85
   9  0.840  0.375  0.847-  78 1.93 118 1.93 116 1.94  64 2.01  75 2.09 115 2.11
  10  0.913  0.249  0.604- 130 1.82  96 1.83 117 1.83 115 1.87
  11  0.090  0.250  0.895- 131 1.82 116 1.84  95 1.85  92 1.85
  12  0.839  0.625  0.344-  88 1.93  89 1.94 137 1.95  80 1.96  87 2.07 140 2.09
  13  0.659  0.000  0.654- 154 1.92 113 1.92 101 1.93  94 2.01 132 2.07 159 2.09
  14  0.161  0.625  0.156-  67 1.93  69 1.94 136 1.95  81 1.97  86 2.07 141 2.09
  15  0.086  0.251  0.394- 119 1.83 128 1.83 107 1.84 126 1.86
  16  0.915  0.251  0.106- 129 1.83 108 1.83 118 1.84 127 1.86
  17  0.831  0.375  0.346-  89 1.92 130 1.93  91 1.96 128 2.00  87 2.13 127 2.13
  18  0.170  0.375  0.153-  67 1.91 131 1.92 121 1.95 129 2.02  86 2.14 126 2.14
  19  0.338  0.251  0.349- 122 1.91 103 1.94 124 1.94 126 2.01 121 2.02 100 2.14
  20  0.662  0.251  0.152- 123 1.90 104 1.94 125 1.95 127 2.00  91 2.02  99 2.15
  21  0.412  0.614  0.105-  68 1.81  72 1.84  81 1.87 144 1.88
  22  0.337  0.498  0.349-  82 1.91  84 1.93 124 1.93  86 2.00 121 2.01  81 2.16
  23  0.587  0.615  0.394-  82 1.81  73 1.85  80 1.87 145 1.88
  24  0.341  0.002  0.845- 112 1.92 114 1.93 155 1.93  93 2.01 133 2.05 158 2.10
  25  0.410  0.125  0.605- 103 1.82 113 1.83  83 1.84 133 1.85
  26  0.589  0.125  0.896- 104 1.82  66 1.82 114 1.82 132 1.87
  27  0.910  0.000  0.104- 108 1.82 138 1.83  97 1.83 106 1.85
  28  0.839  0.124  0.343- 107 1.94 130 1.94 109 1.94  99 1.98 127 2.06 106 2.08
  29  0.161  0.124  0.157- 131 1.93 108 1.94 110 1.94 100 1.98 126 2.06 105 2.07
  30  0.586  0.136  0.393- 122 1.82 101 1.85  99 1.87 102 1.88
  31  0.413  0.136  0.106- 123 1.81 112 1.84 100 1.87 111 1.88
  32  0.343  0.001  0.343- 102 1.92 103 1.94 143 1.95 105 2.03 100 2.04 146 2.07
  33  0.657  0.001  0.157- 111 1.92 104 1.94 142 1.95 106 2.03  99 2.04 147 2.06
  34  0.086  0.499  0.394- 128 1.83  79 1.83  88 1.83  86 1.86
  35  0.663  0.498  0.151-  68 1.90  85 1.93 125 1.94  87 2.00  91 2.01  80 2.18
  36  0.660  0.247  0.657-  83 1.91 101 1.92 134 1.98 115 2.00 132 2.04  64 2.11
  37  0.915  0.499  0.106- 129 1.82  69 1.83  78 1.84  87 1.86
  38  0.412  0.375  0.604- 124 1.80  65 1.83  83 1.83  71 1.84
  39  0.586  0.374  0.896- 125 1.81  70 1.82  66 1.82  64 1.89
  40  0.161  0.375  0.654-  79 1.94 119 1.94 117 1.95  65 1.96  74 2.08  92 2.10
  41  0.660  0.503  0.659-  71 1.91  73 1.93 134 1.98  75 2.00 135 2.02  64 2.08
  42  0.339  0.495  0.850-  90 1.81  72 1.93  70 1.95  74 2.05  65 2.13 120 2.16
  43  0.090  1.000  0.897- 110 1.82  95 1.83 151 1.83  93 1.85
  44  0.910  1.000  0.603- 109 1.82  96 1.82 150 1.82  94 1.86
  45  0.841  0.124  0.845-  95 1.92 118 1.93  97 1.93 132 2.02  94 2.08 115 2.09
  46  0.160  0.125  0.657- 119 1.93  96 1.94  98 1.94 133 2.00  92 2.01  93 2.08
  47  0.339  0.255  0.853-  90 1.81 112 1.93  66 1.96  92 2.05  65 2.16 133 2.20
  48  0.089  0.750  0.396- 148 1.83  88 1.83 139 1.83 141 1.86
  49  0.911  0.750  0.104-  69 1.83 149 1.83 138 1.83 140 1.85
  50  0.840  0.875  0.343- 137 1.93 109 1.93 139 1.94 147 2.02 106 2.05 140 2.06
  51  0.160  0.875  0.157- 136 1.93 110 1.93 138 1.94 146 2.02 105 2.05 141 2.06
  52  0.588  0.875  0.396- 154 1.83 102 1.84 145 1.84 147 1.86
  53  0.412  0.875  0.104- 155 1.83 111 1.84 144 1.84 146 1.86
  54  0.343  0.749  0.343- 145 1.93  84 1.95 143 1.96 141 2.03  81 2.04 146 2.08
  55  0.657  0.749  0.157- 144 1.92  85 1.95 142 1.96 140 2.03  80 2.04 147 2.08
  56  0.089  0.750  0.896- 136 1.82  76 1.83 151 1.84 153 1.86
  57  0.911  0.751  0.603- 137 1.82  77 1.83 150 1.83 152 1.87
  58  0.840  0.875  0.843- 151 1.93  97 1.94 149 1.94 159 2.00  94 2.07 152 2.07
  59  0.160  0.875  0.657-  98 1.94 150 1.94 148 1.94 158 2.00 153 2.07  93 2.07
  60  0.590  0.875  0.897- 142 1.82 114 1.83 157 1.83 159 1.86
  61  0.410  0.875  0.603- 143 1.82 113 1.83 156 1.84 158 1.86
  62  0.341  0.749  0.845-  72 1.93 157 1.93 155 1.94 153 2.01 120 2.07 158 2.10
  63  0.659  0.750  0.654- 154 1.93 156 1.93  73 1.94 152 2.01 135 2.09 159 2.09
  64  0.672  0.375  0.781-  39 1.89   9 2.01  41 2.08  36 2.11
  65  0.326  0.376  0.713-  38 1.83  40 1.96  42 2.13  47 2.16
  66  0.502  0.248  0.871-  26 1.82  39 1.82  47 1.96
  67  0.163  0.501  0.052-   8 1.82  18 1.91  14 1.93
  68  0.505  0.496  0.137-  21 1.81  35 1.90   1 1.96
  69  0.998  0.626  0.128-  37 1.83  49 1.83  14 1.94
  70  0.503  0.501  0.871-   4 1.82  39 1.82  42 1.95
  71  0.499  0.500  0.627-  38 1.84   3 1.84  41 1.91
  72  0.336  0.624  0.948-  21 1.84  42 1.93  62 1.93
  73  0.664  0.624  0.552-  23 1.85  41 1.93  63 1.94
  74  0.169  0.502  0.776-   8 1.85   5 2.02  42 2.05  40 2.08
  75  0.828  0.499  0.719-   7 1.87  41 2.00   6 2.09   9 2.09
  76  0.003  0.624  0.872-  56 1.83   8 1.84   6 1.92
  77  0.997  0.625  0.628-   7 1.82  57 1.83   5 1.94
  78  0.838  0.501  0.948-  37 1.84   9 1.93   6 1.93
  79  0.161  0.501  0.551-  34 1.83   5 1.93  40 1.94
  80  0.675  0.628  0.283-  23 1.87  12 1.96  55 2.04  35 2.18
  81  0.326  0.627  0.217-  21 1.87  14 1.97  54 2.04  22 2.16
  82  0.496  0.495  0.365-  23 1.81  22 1.91   1 1.98
  83  0.499  0.250  0.627-  38 1.83  25 1.84  36 1.91
  84  0.335  0.625  0.449-   3 1.82  22 1.93  54 1.95
  85  0.666  0.626  0.052-   4 1.82  35 1.93  55 1.95
  86  0.170  0.502  0.281-  34 1.86  22 2.00  14 2.07  18 2.14
  87  0.829  0.502  0.219-  37 1.86  35 2.00  12 2.07  17 2.13
  88  0.001  0.626  0.372-  34 1.83  48 1.83  12 1.93
  89  0.836  0.501  0.448-   7 1.82  17 1.92  12 1.94
  90  0.324  0.376  0.938-  42 1.81  47 1.81
  91  0.670  0.376  0.269-  17 1.96  35 2.01  20 2.02   1 2.04
  92  0.169  0.246  0.778-  11 1.85  46 2.01  47 2.05  40 2.10
  93  0.173  0.999  0.782-  43 1.85  24 2.01  59 2.07  46 2.08
  94  0.827  1.000  0.718-  44 1.86  13 2.01  58 2.07  45 2.08
  95  0.003  0.124  0.872-  43 1.83  11 1.85  45 1.92
  96  0.997  0.123  0.628-  44 1.82  10 1.83  46 1.94
  97  0.836  1.000  0.947-  27 1.83  45 1.93  58 1.94
  98  0.164  1.000  0.553-   2 1.82  59 1.94  46 1.94
  99  0.674  0.123  0.282-  30 1.87  28 1.98  33 2.04  20 2.15
 100  0.327  0.123  0.219-  31 1.87  29 1.98  32 2.04  19 2.14
 101  0.663  0.125  0.551-  30 1.85  36 1.92  13 1.93
 102  0.505  0.003  0.373-  52 1.84  30 1.88  32 1.92
 103  0.336  0.123  0.448-  25 1.82  19 1.94  32 1.94
 104  0.665  0.123  0.052-  26 1.82  33 1.94  20 1.94
 105  0.173  0.999  0.281-   2 1.86  32 2.03  51 2.05  29 2.07
 106  0.827  0.999  0.219-  27 1.85  33 2.03  50 2.05  28 2.08
 107  0.002  0.123  0.372-   2 1.83  15 1.84  28 1.94
 108  0.998  0.123  0.128-  27 1.82  16 1.83  29 1.94
 109  0.836  0.999  0.447-  44 1.82  50 1.93  28 1.94
 110  0.163  0.999  0.053-  43 1.82  51 1.93  29 1.94
 111  0.495  0.003  0.127-  53 1.84  31 1.88  33 1.92
 112  0.337  0.125  0.949-  31 1.84  24 1.92  47 1.93
 113  0.497  0.000  0.628-  25 1.83  61 1.83  13 1.92
 114  0.503  1.000  0.871-  26 1.82  60 1.83  24 1.93
 115  0.827  0.250  0.718-  10 1.87  36 2.00  45 2.09   9 2.11
 116  0.003  0.375  0.872-   8 1.83  11 1.84   9 1.94
 117  0.997  0.375  0.628-   7 1.82  10 1.83  40 1.95
 118  0.839  0.249  0.948-  16 1.84  45 1.93   9 1.93
 119  0.160  0.249  0.551-  15 1.83  46 1.93  40 1.94
 120  0.327  0.625  0.719-   3 1.85   5 2.00  62 2.07  42 2.16
 121  0.331  0.376  0.231-  18 1.95  22 2.01   1 2.02  19 2.02
 122  0.498  0.258  0.366-  30 1.82  19 1.91   1 1.99
 123  0.504  0.256  0.136-  31 1.81  20 1.90   1 1.97
 124  0.329  0.375  0.452-  38 1.80  22 1.93  19 1.94
 125  0.672  0.375  0.047-  39 1.81  35 1.94  20 1.95
 126  0.171  0.247  0.281-  15 1.86  19 2.01  29 2.06  18 2.14
 127  0.829  0.247  0.219-  16 1.86  20 2.00  28 2.06  17 2.13
 128  0.998  0.375  0.372-  34 1.83  15 1.83  17 2.00
 129  0.001  0.375  0.128-  37 1.82  16 1.83  18 2.02
 130  0.837  0.248  0.448-  10 1.82  17 1.93  28 1.94
 131  0.162  0.248  0.052-  11 1.82  18 1.92  29 1.93
 132  0.673  0.124  0.780-  26 1.87  45 2.02  36 2.04  13 2.07
 133  0.327  0.123  0.720-  25 1.85  46 2.00  24 2.05  47 2.20
 134  0.674  0.376  0.557-  41 1.98  36 1.98
 135  0.673  0.625  0.781-   4 1.87   6 2.02  41 2.02  63 2.09
 136  0.162  0.752  0.053-  56 1.82  51 1.93  14 1.95
 137  0.837  0.752  0.447-  57 1.82  50 1.93  12 1.95
 138  0.997  0.876  0.127-  27 1.83  49 1.83  51 1.94
 139  0.003  0.876  0.372-   2 1.83  48 1.83  50 1.94
 140  0.827  0.752  0.218-  49 1.85  55 2.03  50 2.06  12 2.09
 141  0.173  0.752  0.282-  48 1.86  54 2.03  51 2.06  14 2.09
 142  0.662  0.875  0.054-  60 1.82  33 1.95  55 1.96
 143  0.338  0.875  0.446-  61 1.82  32 1.95  54 1.96
 144  0.495  0.746  0.126-  53 1.84  21 1.88  55 1.92
 145  0.505  0.747  0.374-  52 1.84  23 1.88  54 1.93
 146  0.329  0.875  0.219-  53 1.86  51 2.02  32 2.07  54 2.08
 147  0.671  0.876  0.281-  52 1.86  50 2.02  33 2.06  55 2.08
 148  0.163  0.750  0.553-  48 1.83  59 1.94   5 1.94
 149  0.837  0.750  0.947-  49 1.83   6 1.93  58 1.94
 150  0.997  0.876  0.629-  44 1.82  57 1.83  59 1.94
 151  0.002  0.876  0.872-  43 1.83  56 1.84  58 1.93
 152  0.828  0.750  0.719-  57 1.87  63 2.01  58 2.07   6 2.09
 153  0.172  0.751  0.781-  56 1.86  62 2.01  59 2.07   5 2.10
 154  0.663  0.876  0.553-  52 1.83  13 1.92  63 1.93
 155  0.337  0.876  0.947-  53 1.83  24 1.93  62 1.94
 156  0.497  0.750  0.628-   3 1.84  61 1.84  63 1.93
 157  0.503  0.750  0.871-   4 1.83  60 1.83  62 1.93
 158  0.328  0.875  0.719-  61 1.86  59 2.00  62 2.10  24 2.10
 159  0.672  0.875  0.781-  60 1.86  58 2.00  13 2.09  63 2.09
 
  LATTYP: Found a simple monoclinic cell.
 ALAT       =    14.6889751464
 B/A-ratio  =     0.8259161174
 C/A-ratio  =     1.5972413798
 COS(beta)  =    -0.9171837574
  
  Lattice vectors:
  
 A1 = ( -11.8609006218,   0.0000000000,  -8.6651617002)
 A2 = (   0.0000000000, -12.1318613217,   0.0000000000)
 A3 = (  11.8609006218,   0.0000000000,  20.2429474736)


Analysis of symmetry for initial positions (statically):
=====================================================================
 Subroutine PRICEL returns:
 Original cell was already a primitive cell.
 

 Routine SETGRP: Setting up the symmetry group for a 
 simple monoclinic supercell.


 Subroutine GETGRP returns: Found  1 space group operations
 (whereof  1 operations were pure point group operations)
 out of a pool of  4 trial point group operations.


The static configuration has the point symmetry C_1 .


Analysis of symmetry for dynamics (positions and initial velocities):
=====================================================================
 Subroutine PRICEL returns:
 Original cell was already a primitive cell.
 

 Routine SETGRP: Setting up the symmetry group for a 
 simple monoclinic supercell.


 Subroutine GETGRP returns: Found  1 space group operations
 (whereof  1 operations were pure point group operations)
 out of a pool of  4 trial point group operations.


The dynamic configuration has the point symmetry C_1 .


Analysis of structural, dynamic, and magnetic symmetry:
=====================================================================
 Subroutine PRICEL returns:
 Original cell was already a primitive cell.
 

 Routine SETGRP: Setting up the symmetry group for a 
 simple monoclinic supercell.


 Subroutine GETGRP returns: Found  1 space group operations
 (whereof  1 operations were pure point group operations)
 out of a pool of  4 trial point group operations.


The magnetic configuration has the point symmetry C_1 .


 Subroutine INISYM returns: Found  1 space group operations
 (whereof  1 operations are pure point group operations),
 and found     1 'primitive' translations

 
 
 KPOINTS: KPOINTS created by Atomic Simulation Env
  k-points in reciprocal lattice
Space group operators:
 irot       det(A)        alpha          n_x          n_y          n_z        tau_x        tau_y        tau_z
    1     1.000000     0.000000     1.000000     0.000000     0.000000     0.000000     0.000000     0.000000

 ----------------------------------------------------------------------------- 
|                                                                             |
|           W    W    AA    RRRRR   N    N  II  N    N   GGGG   !!!           |
|           W    W   A  A   R    R  NN   N  II  NN   N  G    G  !!!           |
|           W    W  A    A  R    R  N N  N  II  N N  N  G       !!!           |
|           W WW W  AAAAAA  RRRRR   N  N N  II  N  N N  G  GGG   !            |
|           WW  WW  A    A  R   R   N   NN  II  N   NN  G    G                |
|           W    W  A    A  R    R  N    N  II  N    N   GGGG   !!!           |
|                                                                             |
|      Your generating k-point grid is not commensurate to the symmetry       |
|      of the lattice.  This can cause   slow convergence with respect        |
|      to k-points for HF type calculations                                   |
|      suggested SOLUTIONS:                                                   |
|       ) if not already the case, use automatic k-point generation           |
|       ) shift your grid to Gamma (G) (e.g. required for hex or fcc lattice) |
|                                                                             |
 ----------------------------------------------------------------------------- 

 
 Subroutine IBZKPT_HF returns following result:
 ==============================================
 
 Found      2 k-points in 1st BZ
 the following      2 k-points will be used (e.g. in the exchange kernel)
 Following reciprocal coordinates:   # in IRBZ
  0.250000  0.250000  0.250000    0.50000000   1 t-inv F
 -0.250000 -0.250000 -0.250000    0.50000000   1 t-inv T


--------------------------------------------------------------------------------------------------------




 Dimension of arrays:
   k-points           NKPTS =      1   k-points in BZ     NKDIM =      2   number of bands    NBANDS=   1152
   number of dos      NEDOS =    301   number of ions     NIONS =    159
   non local maximal  LDIM  =      6   non local SUM 2l+1 LMDIM =     18
   total plane-waves  NPLWV = 216000
   max r-space proj   IRMAX =   1478   max aug-charges    IRDMAX=   5112
   dimension x,y,z NGX =    60 NGY =   60 NGZ =   60
   dimension x,y,z NGXF=   120 NGYF=  120 NGZF=  120
   support grid    NGXF=   120 NGYF=  120 NGZF=  120
   ions per type =              63  96
 NGX,Y,Z   is equivalent  to a cutoff of   8.17,  8.22,  8.62 a.u.
 NGXF,Y,Z  is equivalent  to a cutoff of  16.33, 16.44, 17.23 a.u.


 I would recommend the setting:
   dimension x,y,z NGX =    60 NGY =   59 NGZ =   57
 SYSTEM =  unknown system                          
 POSCAR =  Ga  O                                   

 Startparameter for this run:
   NWRITE =      2    write-flag & timer
   PREC   = normal    normal or accurate (medium, high low for compatibility)
   ISTART =      1    job   : 0-new  1-cont  2-samecut
   ICHARG =      0    charge: 1-file 2-atom 10-const
   ISPIN  =      2    spin polarized calculation?
   LNONCOLLINEAR =      F non collinear calculations
   LSORBIT =      F    spin-orbit coupling
   INIWAV =      1    electr: 0-lowe 1-rand  2-diag
   LASPH  =      F    aspherical Exc in radial PAW
   METAGGA=      F    non-selfconsistent MetaGGA calc.

 Electronic Relaxation 1
   ENCUT  =  400.0 eV  29.40 Ry    5.42 a.u.  19.92 19.78 18.88*2*pi/ulx,y,z
   ENINI  =  400.0     initial cutoff
   ENAUG  =  605.4 eV  augmentation charge cutoff
   NELM   =     40;   NELMIN=  2; NELMDL=  0     # of ELM steps 
   EDIFF  = 0.1E-03   stopping-criterion for ELM
   LREAL  =      T    real-space projection
   NLSPLINE    = F    spline interpolate recip. space projectors
   LCOMPAT=      F    compatible to vasp.4.4
   GGA_COMPAT  = T    GGA compatible to vasp.4.4-vasp.4.6
   LMAXPAW     = -100 max onsite density
   LMAXMIX     =    2 max onsite mixed and CHGCAR
   VOSKOWN=      0    Vosko Wilk Nusair interpolation
   ROPT   =   -0.00050  -0.00050
 Ionic relaxation
   EDIFFG = 0.1E-02   stopping-criterion for IOM
   NSW    =     45    number of steps for IOM
   NBLOCK =      1;   KBLOCK =     45    inner block; outer block 
   IBRION =      2    ionic relax: 0-MD 1-quasi-New 2-CG
   NFREE  =      1    steps in history (QN), initial steepest desc. (CG)
   ISIF   =      0    stress and relaxation
   IWAVPR =     11    prediction:  0-non 1-charg 2-wave 3-comb
   ISYM   =      3    0-nonsym 1-usesym 2-fastsym
   LCORR  =      T    Harris-Foulkes like correction to forces

   POTIM  = 0.3500    time-step for ionic-motion
   TEIN   =    0.0    initial temperature
   TEBEG  =    0.0;   TEEND  =   0.0 temperature during run
   SMASS  =  -3.00    Nose mass-parameter (am)
   estimated Nose-frequenzy (Omega)   =  0.10E-29 period in steps =****** mass=  -0.341E-26a.u.
   SCALEE = 1.0000    scale energy and forces
   NPACO  =    256;   APACO  = 16.0  distance and # of slots for P.C.
   PSTRESS=    0.0 pullay stress

  Mass of Ions in am
   POMASS =  69.72 16.00
  Ionic Valenz
   ZVAL   =  13.00  6.00
  Atomic Wigner-Seitz radii
   RWIGS  =  -1.00 -1.00
  virtual crystal weights 
   VCA    =   1.00  1.00
   NELECT =    1397.0000    total number of electrons
   NUPDOWN=      -1.0000    fix difference up-down

 DOS related values:
   EMIN   =  10.00;   EMAX   =-10.00  energy-range for DOS
   EFERMI =   0.00
   ISMEAR =     0;   SIGMA  =   0.05  broadening in eV -4-tet -1-fermi 0-gaus

 Electronic relaxation 2 (details)
   IALGO  =     58    algorithm
   LDIAG  =      T    sub-space diagonalisation (order eigenvalues)
   LSUBROT=      F    optimize rotation matrix (better conditioning)
   TURBO    =      0    0=normal 1=particle mesh
   IRESTART =      0    0=no restart 2=restart with 2 vectors
   NREBOOT  =      0    no. of reboots
   NMIN     =      0    reboot dimension
   EREF     =   0.00    reference energy to select bands
   IMIX   =      4    mixing-type and parameters
     AMIX     =   0.40;   BMIX     =  1.00
     AMIX_MAG =   1.60;   BMIX_MAG =  1.00
     AMIN     =   0.10
     WC   =   100.;   INIMIX=   1;  MIXPRE=   1;  MAXMIX= -45

 Intra band minimization:
   WEIMIN = 0.0010     energy-eigenvalue tresh-hold
   EBREAK =  0.22E-07  absolut break condition
   DEPER  =   0.30     relativ break condition  

   TIME   =   0.40     timestep for ELM

  volume/ion in A,a.u.               =      10.48        70.71
  Fermi-wavevector in a.u.,A,eV,Ry     =   1.543773  2.917308 32.425880  2.383235
  Thomas-Fermi vector in A             =   2.649388
 
 Write flags
   LWAVE  =      T    write WAVECAR
   LCHARG =      F    write CHGCAR
   LVTOT  =      F    write LOCPOT, total local potential
   LVHAR  =      T    write LOCPOT, Hartree potential only
   LELF   =      F    write electronic localiz. function (ELF)
   LORBIT =     10    0 simple, 1 ext, 2 COOP (PROOUT)


 Dipole corrections
   LMONO  =      F    monopole corrections only (constant potential shift)
   LDIPOL =      F    correct potential (dipole corrections)
   IDIPOL =      0    1-x, 2-y, 3-z, 4-all directions 
   EPSILON=  1.0000000 bulk dielectric constant

 Exchange correlation treatment:
   GGA     =    --    GGA type
   LEXCH   =     8    internal setting for exchange type
   VOSKOWN=      0    Vosko Wilk Nusair interpolation
   EXXOEP  =     0    0=HF, 1=EXX-LHF (local Hartree Fock) 2=EXX OEP
   LHFCALC =     T    Hartree Fock is set to
   LSYMGRAD=     F    symmetrize gradient (conserves proper symmetry)
   PRECFOCK=fast      Normal, Fast or Accurate (Low or Medium for compatibility)
   LRHFCALC=     F    long range Hartree Fock
   LRSCOR  =     F    long range correlation only (use DFT for short range part)
   LTHOMAS =     F    Thomas Fermi screening in HF
   LMODELHF=     F    short range full HF, long range fraction AEXX
   ENCUT4O =  -1.0   cutoff for four orbital integrals eV
   LMAXFOCK=     4    L truncation for augmentation on plane wave grid
   LMAXFOCKAE=  -1    L truncation for all-electron charge restoration on plane wave grid
   NMAXFOCKAE=   1    number of basis functions for all-electron charge restoration
   LFOCKAEDFT=     F  apply the AE augmentation even for DFT
   NKREDX  =     1    reduce k-point grid by
   NKREDY  =     1    reduce k-point grid by
   NKREDZ  =     1    reduce k-point grid by
   SHIFTRED=     F    shift reduced grid of Gamma
   HFKIDENT=     F    idential grid for each k-point
   ODDONLY =     F    use only odd q-grid points
   EVENONLY=     F    use only even q-grid points
   HFALPHA =   -1.0000 decay constant for conv. correction
   MCALPHA =    0.0000 extent of test-charge in conv. correction in multipole expansion
   AEXX    =    0.3200 exact exchange contribution
   HFSCREEN=    0.2000 screening length (either q_TF or 0.3 A-1)
   HFSCREENC=   0.2000 screening length for correlation (either q_TF or 0.3 A-1)
   HFRCUT  =    0.0000 spherical cutoff for potential kernel
   ALDAX   =    0.6800 LDA exchange part
   AGGAX   =    0.6800 GGA exchange part
   ALDAC   =    1.0000 LDA correlation
   AGGAC   =    1.0000 GGA correlation
   NBANDSGWLOW=     1    first orbital included in HF term
   ENCUTFOCK=  -1.0 apply spherical cutoff to Coloumb kernel
 Linear response parameters
   LEPSILON=     F    determine dielectric tensor
   LRPA    =     F    only Hartree local field effects (RPA)
   LNABLA  =     F    use nabla operator in PAW spheres
   LVEL    =     F    velocity operator in full k-point grid
   LINTERFAST=   F  fast interpolation
   KINTER  =     0    interpolate to denser k-point grid
   CSHIFT  =0.1000    complex shift for real part using Kramers Kronig
   OMEGAMAX=  -1.0    maximum frequency
   DEG_THRESHOLD= 0.2000000E-02 threshold for treating states as degnerate
   RTIME   =    0.100 relaxation time in fs

 Orbital magnetization related:
   ORBITALMAG=     F  switch on orbital magnetization
   LCHIMAG   =     F  perturbation theory with respect to B field
   DQ        =  0.001000  dq finite difference perturbation B field



--------------------------------------------------------------------------------------------------------


 conjugate gradient relaxation of ions
 charge density and potential will be updated during run
 spin polarized calculation
 Conjugate gradient for all bands (Freysoldt, et al. PRB 79, 241103 (2009))
 preconditioned conjugated gradient                                        
 perform sub-space diagonalisation
    before iterative eigenvector-optimisation
 modified Broyden-mixing scheme, WC =      100.0
 initial mixing is a Kerker type mixing with AMIX =  0.4000 and BMIX =      1.0000
 Hartree-type preconditioning will be used
 using additional bands          453
 real space projection scheme for non local part
 use partial core corrections
 no Harris-corrections to forces 
 use gradient corrections 
 use of overlap-Matrix (Vanderbilt PP)
 Gauss-broadening in eV      SIGMA  =   0.05


--------------------------------------------------------------------------------------------------------


  energy-cutoff  :      400.00
  volume of cell :     1665.98
      direct lattice vectors                 reciprocal lattice vectors
    11.860900622  0.000000000 -2.912624073     0.084310630  0.000000000  0.000000000
     0.000000000 12.131861322  0.000000000     0.000000000  0.082427583  0.000000000
     0.000000000  0.000000000 11.577785773     0.021210029  0.000000000  0.086372301

  length of vectors
    12.213285494 12.131861322 11.577785773     0.084310630  0.082427583  0.088938404


 
 old parameters found on file WAVECAR:
  energy-cutoff  :      400.00
  volume of cell :     1665.98
      direct lattice vectors                 reciprocal lattice vectors
    11.860900622  0.000000000 -2.912624073     0.084310630  0.000000000  0.000000000
     0.000000000 12.131861322  0.000000000     0.000000000  0.082427583  0.000000000
     0.000000000  0.000000000 11.577785773     0.021210029  0.000000000  0.086372301

  length of vectors

 
 k-points in units of 2pi/SCALE and weight: KPOINTS created by Atomic Simulation Env
   0.02638016  0.02060690  0.02159308       1.000
 
 k-points in reciprocal lattice and weights: KPOINTS created by Atomic Simulation Env
   0.25000000  0.25000000  0.25000000       1.000
 
 position of ions in fractional coordinates (direct lattice) 
   0.49896846  0.37640082  0.24838942
   0.09051517  0.00013362  0.39659703
   0.41034589  0.62461220  0.60461417
   0.58871573  0.62497097  0.89629084
   0.15979690  0.62399318  0.65598999
   0.84200169  0.62496911  0.84529881
   0.91142593  0.50013211  0.60395158
   0.09159671  0.49914286  0.89549676
   0.84015585  0.37495142  0.84736726
   0.91283962  0.24940745  0.60389323
   0.09007426  0.25028259  0.89549273
   0.83922115  0.62532153  0.34377901
   0.65875674  0.00041136  0.65382203
   0.16083457  0.62524409  0.15625886
   0.08556263  0.25071099  0.39420420
   0.91478642  0.25062212  0.10596733
   0.83057298  0.37489304  0.34576976
   0.17030539  0.37489741  0.15279767
   0.33808193  0.25135114  0.34854885
   0.66206540  0.25129879  0.15159121
   0.41226153  0.61411392  0.10479701
   0.33725032  0.49813094  0.34933455
   0.58727285  0.61482874  0.39411963
   0.34110975  0.00178444  0.84545007
   0.41012648  0.12496599  0.60509651
   0.58906220  0.12456420  0.89591904
   0.90952542  0.00001580  0.10384443
   0.83941923  0.12442764  0.34330178
   0.16062976  0.12436709  0.15688368
   0.58601372  0.13557216  0.39265177
   0.41343219  0.13576382  0.10637972
   0.34305630  0.00084787  0.34262521
   0.65676133  0.00079842  0.15732013
   0.08554093  0.49917559  0.39441762
   0.66299032  0.49804742  0.15055740
   0.65972791  0.24661918  0.65691689
   0.91465541  0.49924612  0.10581808
   0.41188391  0.37467612  0.60359872
   0.58578824  0.37449104  0.89621885
   0.16138607  0.37488314  0.65405869
   0.65959160  0.50327952  0.65943083
   0.33903684  0.49546369  0.84969843
   0.08995678  0.99986557  0.89681836
   0.91016002  0.99951129  0.60286664
   0.84149099  0.12439921  0.84469207
   0.16024399  0.12533359  0.65660027
   0.33896561  0.25467989  0.85279612
   0.08921214  0.75017326  0.39625179
   0.91085140  0.75028058  0.10412857
   0.84003361  0.87540073  0.34265121
   0.16002635  0.87542862  0.15731835
   0.58790271  0.87499631  0.39587670
   0.41211864  0.87476152  0.10368134
   0.34267236  0.74860846  0.34255622
   0.65714445  0.74870202  0.15729479
   0.08860910  0.75027796  0.89637099
   0.91147303  0.75060069  0.60328204
   0.84010556  0.87527133  0.84313382
   0.16029173  0.87529571  0.65705646
   0.58957746  0.87509167  0.89700711
   0.41029891  0.87507046  0.60326219
   0.34061043  0.74878252  0.84535491
   0.65926276  0.75018829  0.65384905
   0.67247174  0.37548355  0.78142622
   0.32590637  0.37555469  0.71319058
   0.50227891  0.24833582  0.87093903
   0.16278851  0.50132990  0.05247657
   0.50511804  0.49648765  0.13707692
   0.99799876  0.62584470  0.12792897
   0.50257470  0.50074946  0.87112411
   0.49875910  0.49997091  0.62685220
   0.33629941  0.62386477  0.94798502
   0.66367842  0.62361194  0.55205671
   0.16877278  0.50217373  0.77647703
   0.82769067  0.49921083  0.71929390
   0.00333485  0.62419298  0.87228840
   0.99655714  0.62522853  0.62758329
   0.83822780  0.50079624  0.94830709
   0.16111835  0.50066478  0.55082134
   0.67495374  0.62768146  0.28280012
   0.32562552  0.62689041  0.21749189
   0.49645898  0.49509235  0.36548948
   0.49886017  0.24962570  0.62689082
   0.33480174  0.62532490  0.44850302
   0.66574079  0.62554902  0.05151188
   0.17036564  0.50181121  0.28109745
   0.82933376  0.50175973  0.21865896
   0.00149802  0.62579223  0.37186368
   0.83619131  0.50076259  0.44779998
   0.32419830  0.37624845  0.93849379
   0.66956792  0.37575330  0.26903443
   0.16931946  0.24631725  0.77765024
   0.17264724  0.99946225  0.78163240
   0.82702696  0.99997654  0.71837727
   0.00285749  0.12417661  0.87209431
   0.99691385  0.12321429  0.62775143
   0.83575013  0.99966576  0.94662794
   0.16392360  0.99973468  0.55346655
   0.67384173  0.12296586  0.28159439
   0.32666340  0.12329279  0.21862313
   0.66250358  0.12520983  0.55086176
   0.50473421  0.00261220  0.37319782
   0.33567159  0.12334570  0.44844087
   0.66503225  0.12309487  0.05167870
   0.17297199  0.99909011  0.28114436
   0.82694012  0.99901797  0.21885645
   0.00211363  0.12327454  0.37186190
   0.99751090  0.12317334  0.12797398
   0.83618199  0.99918804  0.44680222
   0.16346223  0.99922111  0.05309744
   0.49531483  0.00266292  0.12706081
   0.33744161  0.12496409  0.94910499
   0.49720790  0.00006848  0.62829887
   0.50330339  0.99977560  0.87147989
   0.82714289  0.24996347  0.71798285
   0.00278340  0.37543287  0.87205312
   0.99738951  0.37543026  0.62797207
   0.83895812  0.24853451  0.94798424
   0.16038160  0.24868424  0.55111580
   0.32711208  0.62535979  0.71924353
   0.33079402  0.37594679  0.23126688
   0.49752254  0.25762571  0.36593762
   0.50391071  0.25617060  0.13598378
   0.32867883  0.37481378  0.45245591
   0.67188093  0.37470639  0.04659399
   0.17085656  0.24734333  0.28108574
   0.82917633  0.24730171  0.21880404
   0.99828283  0.37523984  0.37163687
   0.00114113  0.37527004  0.12791890
   0.83664870  0.24845343  0.44779966
   0.16235098  0.24758589  0.05249511
   0.67293560  0.12390357  0.78046141
   0.32748674  0.12343688  0.71966607
   0.67438984  0.37619374  0.55709446
   0.67337801  0.62519980  0.78116909
   0.16238729  0.75180276  0.05274185
   0.83728376  0.75183988  0.44714183
   0.99666822  0.87586802  0.12749444
   0.00324094  0.87587341  0.37233502
   0.82732821  0.75185665  0.21843332
   0.17264689  0.75175737  0.28152558
   0.66241418  0.87543421  0.05387507
   0.33791581  0.87542753  0.44616459
   0.49519945  0.74631814  0.12613093
   0.50486404  0.74673154  0.37406517
   0.32898343  0.87546815  0.21931853
   0.67111487  0.87553233  0.28070451
   0.16271672  0.75024971  0.55334099
   0.83697201  0.75039327  0.94675586
   0.99747338  0.87578234  0.62850719
   0.00229219  0.87580190  0.87156355
   0.82754428  0.75038943  0.71855514
   0.17210576  0.75103362  0.78143448
   0.66338460  0.87578473  0.55301320
   0.33689398  0.87578582  0.94662480
   0.49742648  0.74969025  0.62830838
   0.50305656  0.75010238  0.87143066
   0.32783199  0.87522759  0.71886134
   0.67244306  0.87528435  0.78111904
 
 position of ions in cartesian coordinates  (Angst):
   5.91821531  4.56644250  1.42249192
   1.07359146  0.00162105  4.32807882
   4.86707188  7.57770854  5.80490995
   6.98269879  7.58206110  8.66235567
   1.89533514  7.57019871  7.12948331
   9.98689839  7.58203855  7.33425413
  10.81033243  6.06753340  4.33778093
   1.08641943  6.05553200 10.10108289
   9.96500503  4.54885864  7.36357841
  10.82709999  3.02577660  4.33298781
   1.06836183  3.03639369 10.10547050
   9.95391864  7.58631408  1.53586399
   7.81344825  0.00499057  5.65110065
   1.90764280  7.58537459  1.34068103
   1.01484988  3.04159101  4.31479997
  10.85019086  3.04051275 -1.43756196
   9.85134358  4.54815031  1.58410136
   2.01997526  4.54820342  1.27302312
   4.00995622  3.04935722  3.05071830
   7.85269193  3.04872211 -0.17325708
   4.88979298  7.45034493  0.01255447
   4.00009255  6.04325550  3.06223723
   6.96558495  7.45901697  2.85252755
   4.04586886  0.02164859  8.79491532
   4.86446947  1.51607005  5.81113349
   6.98680817  1.51119556  8.65704201
  10.78779060  0.00019169 -1.44681708
   9.95626808  1.50953885  1.52976180
   1.90521357  1.50880434  1.34851157
   6.95065046  1.64474266  2.83920041
   4.90367809  1.64706781  0.02746904
   4.06895668  0.01028627  2.96764728
   7.78978092  0.00968632 -0.09148017
   1.01459247  6.05592908  4.31733420
   7.86366230  6.04224229 -0.18792027
   7.82496723  2.99194964  5.68410357
  10.84863696  6.05678465 -1.43890831
   4.88531417  4.54551868  5.78867372
   6.94797606  4.54327331  8.67004897
   1.91418416  4.54803027  7.10249449
   7.82335041  6.10571739  5.71360649
   4.02128225  6.01089679  8.85013951
   1.06696848 12.13023046 10.12116061
  10.79531757 12.12593241  4.32890682
   9.98084101  1.50919394  7.32871687
   1.90063800  1.52052967  7.13524679
   4.02043738  3.08974115  8.88621136
   1.05813629  9.10099800  4.32787694
  10.80351799  9.10229999 -1.44738949
   9.96355523 10.62024030  1.52044017
   1.89805665 10.62057867  1.35530161
   6.97305557 10.61533384  2.87103608
   4.88809829 10.61248545  0.00005368
   4.06440284  9.08201403  2.96796679
   7.79432498  9.08314906 -0.09288938
   1.05098376  9.10226817 10.11990633
  10.81089101  9.10618352  4.32989189
   9.96440860 10.61867035  7.31471104
   1.90120432 10.61896617  7.14038934
   6.99291969 10.61649080  8.66813866
   4.86651456 10.61623351  5.78939392
   4.03994647  9.08412573  8.79526796
   7.81945004  9.10118031  5.64993967
   7.97612043  4.55531440  7.08852795
   3.86554312  4.55617739  7.30792503
   5.95748029  3.01277576  8.62059584
   1.93081828  6.08206486  0.13342072
   5.99115493  6.02331934  0.11582818
  11.83716414  7.59266112 -1.42566105
   5.96098851  6.07502298  8.62187711
   5.91573217  6.06557775  5.80486267
   3.98881383  7.56864084  9.99605373
   7.87182375  7.56557356  4.45854863
   2.00179717  6.09230206  8.49831301
   9.81715678  6.05635658  5.91707894
   0.03955433  7.57262262 10.08945502
  11.82006523  7.58518577  4.36342861
   9.94213668  6.07559052  8.53785380
   1.91100875  6.07399573  5.90801434
   8.00555920  7.61494443  1.30831269
   3.86221194  7.60534751  1.56964973
   5.88845057  6.00639177  2.78556059
   5.91693093  3.02842437  5.80501541
   3.97105019  7.58635500  4.21752031
   7.89628539  7.58907397 -1.34265917
   2.02068988  6.08790396  2.75827496
   9.83664528  6.08727952  0.11604911
   0.01776786  7.59202453  4.30099481
   9.91798208  6.07518232  2.74902128
   3.84528376  4.56459398  9.92141227
   7.94167854  4.55858696  1.16462334
   2.00828130  2.98828678  8.51030392
   2.04775177 12.12533738  8.54671599
   9.80928456 12.13157671  5.90839947
   0.03389235  1.50649344 10.08859835
  11.82429616  1.49481870  4.36433632
   9.91274921 12.12780641  8.52562955
   1.94428156 12.12864251  5.93046934
   7.99236977  1.49180474  1.29759186
   3.87452212  1.49577100  1.57972410
   7.85788915  1.51902831  4.44813558
   5.98660226  0.03169091  2.85070336
   3.98136737  1.49641289  4.21426716
   7.88788144  1.49336990 -1.33866408
   2.05160363 12.12082263  2.75122683
   9.80825457 12.11994753  0.12530738
   0.02506959  1.49554957  4.29918123
  11.83137765  1.49432184 -1.42371898
   9.91787144 12.12201079  2.73749655
   1.93880931 12.12241195  0.13864670
   5.87487993  0.03230614  0.02841698
   4.00236138  1.51604696 10.00569373
   5.89733355  0.00083074  5.82613003
   5.96963152 12.12913897  8.62387390
   9.81065957  3.03252211  5.90349538
   0.03301361  4.55469955 10.08833719
  11.82993791  4.55466788  4.36550535
   9.95079891  3.01518622  8.53198884
   1.90227022  3.01700265  5.91356935
   3.87984391  7.58677820  7.37449298
   3.92351494  4.56093438  1.71407974
   5.90106546  3.12547937  2.78765118
   5.97683484  3.10782616  0.10668856
   3.89842696  4.54718883  4.28111975
   7.96911293  4.54588592 -1.41748133
   2.02651267  3.00073502  2.75670953
   9.83477800  3.00023009  0.11818741
  11.84053347  4.55235771  1.39510951
   0.01353477  4.55272412  1.47769398
   9.92340708  3.01420252  2.74768539
   1.92562883  3.00367774  0.13490971
   7.98162222  1.50318095  7.07600655
   3.88428763  1.49751916  7.37829387
   7.99887084  4.56393031  4.48567627
   7.98686965  7.58483724  7.08291136
   1.92605951  9.12076681  0.13766068
   9.93093952  9.12121716  2.73821951
  11.82138266 10.62590937 -1.42681653
   0.03844050 10.62597470  4.30137545
   9.81285763  9.12142063  0.11927818
   2.04774766  9.12021621  2.75658733
   7.85682876 10.62064645 -1.30560942
   4.00798588 10.62056544  4.18137628
   5.87351150  9.05422815  0.01798703
   5.98814226  9.05924344  2.86036722
   3.90203981 10.62105823  1.58101785
   7.96002677 10.62183686  1.29523138
   1.92996683  9.10192547  5.93253077
   9.92724183  9.10366707  8.52355170
  11.83093267 10.62486991  4.37145665
   0.02718747 10.62510716 10.08409978
   9.81542047  9.10362053  5.90895210
   2.04132931  9.11143572  8.54600162
   7.86833880 10.62489885  4.47047841
   3.99586599 10.62491211  9.97857362
   5.89992600  9.09513820  5.82560348
   5.96670391  9.10013808  8.62402289
   3.88838267 10.61813972  7.36797123
   7.97578029 10.61882831  7.08505506
 


--------------------------------------------------------------------------------------------------------


 k-point  1 :   0.2500 0.2500 0.2500  plane waves:   30269

 maximum and minimum number of plane-waves per node :     30269    30269

 maximum number of plane-waves:     30269
 maximum index in each direction: 
   IXMAX=   19   IYMAX=   19   IZMAX=   18
   IXMIN=  -20   IYMIN=  -20   IZMIN=  -19

 WARNING: aliasing errors must be expected set NGX to  80 to avoid them
 WARNING: aliasing errors must be expected set NGY to  80 to avoid them
 WARNING: aliasing errors must be expected set NGZ to  76 to avoid them
 aliasing errors are usually negligible using standard VASP settings
 and one can safely disregard these warnings

 serial   3D FFT for wavefunctions
 parallel 3D FFT for charge:
    minimum data exchange during FFTs selected (reduces bandwidth)


 FFT grid for exact exchange (Hartree Fock) 
  NGX = 42; NGY = 42; NGZ = 40

 
 Radii for the augmentation spheres in the non-local exchange
 for species   1 augmentation radius   1.277 (default was   1.031)
       energy cutoff for augmentation   1600.0
 for species   2 augmentation radius   0.820 (default was   0.722)
       energy cutoff for augmentation   1600.0
 Maximum index for augmentation-charges in exchange          382
  SETUP_FOCK is finished

 total amount of memory used by VASP on root node   100136. kBytes
========================================================================

   base      :      30000. kBytes
   nonlr-proj:      32602. kBytes
   fftplans  :       1403. kBytes
   grid      :      18562. kBytes
   one-center:       4945. kBytes
   HF        :        129. kBytes
   wavefun   :      12495. kBytes
 
     INWAV:  cpu time    3.3933: real time    3.3939
 Broyden mixing: mesh for mixing (old mesh)
   NGX = 39   NGY = 39   NGZ = 37
  (NGX  =120   NGY  =120   NGZ  =120)
  gives a total of  56277 points

 charge density for first step will be calculated from the start-wavefunctions


--------------------------------------------------------------------------------------------------------


 Maximum index for non-local projection operator         1404
 Maximum index for augmentation-charges          167 (set IRDMAX)


--------------------------------------------------------------------------------------------------------


 initial charge from wavefunction
 First call to EWALD:  gamma=   0.150
 Maximum number of real-space cells 3x 3x 3
 Maximum number of reciprocal cells 3x 3x 3

 FEWALD executed in parallel
    FEWALD:  cpu time    0.0059: real time    0.0059


----------------------------------------- Iteration    1(   1)  ---------------------------------------


    POTLOK:  cpu time    0.1139: real time    0.1142
    SETDIJ:  cpu time    0.3465: real time    0.3466
    TRIAL :  cpu time  107.1728: real time  107.2275
    CORREC:  cpu time  105.4893: real time  105.5241
    CHARGE:  cpu time    0.1327: real time    0.1329
    --------------------------------------------
      LOOP:  cpu time  213.2874: real time  213.3829

 eigenvalue-minimisations  :     0
 total energy-change (2. order) :-0.1492258E+04  (-0.6962343E-05)
 number of electron    1397.0003000 magnetization       1.0000017
 augmentation part      606.1356958 magnetization       0.2348874

 Free energy of the ion-electron system (eV)
  ---------------------------------------------------
  alpha Z        PSCENC =      9368.91501797
  Ewald energy   TEWEN  =   -116612.69984759
  -Hartree energ DENC   =    -45172.98568086
  -exchange      EXHF   =      5247.09051969
  -V(xc)+E(xc)   XCENC  =      4728.54597236
  PAW double counting   =    126481.36402719  -148039.54023672
  entropy T*S    EENTRO =        -0.00000000
  eigenvalues    EBANDS =    -13671.27931741
  atomic energy  EATOM  =    176178.33200529
  ---------------------------------------------------
  free energy    TOTEN  =     -1492.25754009 eV

  energy without entropy =    -1492.25754009  energy(sigma->0) =    -1492.25754009
  exchange ACFDT corr.  =        -0.00000000  see jH, gK, PRB 81, 115126


--------------------------------------------------------------------------------------------------------




----------------------------------------- Iteration    1(   2)  ---------------------------------------


    POTLOK:  cpu time    0.1027: real time    0.1027
    SETDIJ:  cpu time    0.3718: real time    0.3718
    TRIAL :  cpu time  107.3012: real time  107.3549
    CORREC:  cpu time  105.5142: real time  105.5544
    CHARGE:  cpu time    0.1312: real time    0.1312
    --------------------------------------------
      LOOP:  cpu time  213.4238: real time  213.5710

 eigenvalue-minimisations  :     0
 total energy-change (2. order) :-0.6875147E-05  (-0.7562583E-05)
 number of electron    1397.0003000 magnetization       1.0000017
 augmentation part      606.1353395 magnetization       0.2348907

 Free energy of the ion-electron system (eV)
  ---------------------------------------------------
  alpha Z        PSCENC =      9368.91501797
  Ewald energy   TEWEN  =   -116612.69984759
  -Hartree energ DENC   =    -45173.00309433
  -exchange      EXHF   =      5247.09070632
  -V(xc)+E(xc)   XCENC  =      4728.54637130
  PAW double counting   =    126481.38846021  -148039.59231305
  entropy T*S    EENTRO =        -0.00000000
  eigenvalues    EBANDS =    -13671.23485307
  atomic energy  EATOM  =    176178.33200529
  ---------------------------------------------------
  free energy    TOTEN  =     -1492.25754697 eV

  energy without entropy =    -1492.25754697  energy(sigma->0) =    -1492.25754697
  exchange ACFDT corr.  =        -0.00000000  see jH, gK, PRB 81, 115126


--------------------------------------------------------------------------------------------------------


  average scaling for gradient   0.9778


 average (electrostatic) potential at core
  the test charge radii are     1.0314  0.7215
  (the norm of the test charge is              1.0000)
       1 -19.7143       2 -20.3488       3 -20.3968       4 -20.3874       5 -20.2522
       6 -20.4539       7 -20.4121       8 -20.3303       9 -20.4230      10 -20.4348
      11 -20.3597      12 -20.2380      13 -20.3917      14 -20.2133      15 -20.2795
      16 -20.3417      17 -20.2593      18 -20.2436      19 -19.9339      20 -19.9272
      21 -20.0425      22 -19.8867      23 -20.1041      24 -20.2623      25 -20.3811
      26 -20.3730      27 -20.3683      28 -20.2177      29 -20.1902      30 -20.1517
      31 -20.0859      32 -20.2123      33 -20.2036      34 -20.2466      35 -19.8961
      36 -20.5035      37 -20.3125      38 -20.1308      39 -20.1799      40 -20.2147
      41 -20.4399      42 -19.6948      43 -20.3896      44 -20.3939      45 -20.4376
      46 -20.2238      47 -19.7551      48 -20.3862      49 -20.4037      50 -20.2894
      51 -20.2901      52 -20.3327      53 -20.2816      54 -20.2717      55 -20.2626
      56 -20.4287      57 -20.4318      58 -20.4129      59 -20.3384      60 -20.3976
      61 -20.3990      62 -20.3229      63 -20.4452      64 -63.8170      65 -63.4180
      66 -63.6169      67 -63.3045      68 -62.7914      69 -63.6950      70 -63.5917
      71 -63.7788      72 -63.2298      73 -63.3385      74 -63.6824      75 -63.9909
      76 -63.7488      77 -63.7390      78 -63.4241      79 -63.2563      80 -63.5958
      81 -63.5854      82 -62.8238      83 -63.8059      84 -63.3573      85 -63.3715
      86 -63.6320      87 -63.6977      88 -63.6814      89 -63.3587      90 -61.3302
      91 -62.9967      92 -63.6965      93 -63.8620      94 -63.9622      95 -63.7312
      96 -63.7172      97 -63.4727      98 -63.3917      99 -63.6104     100 -63.5987
     101 -63.3557     102 -63.4842     103 -63.3312     104 -63.3415     105 -63.8244
     106 -63.8154     107 -63.6454     108 -63.6607     109 -63.3553     110 -63.3380
     111 -63.4391     112 -63.2404     113 -63.7195     114 -63.7116     115 -64.0072
     116 -63.6897     117 -63.6990     118 -63.4530     119 -63.2859     120 -63.7289
     121 -63.0301     122 -62.8748     123 -62.8220     124 -63.0718     125 -63.0984
     126 -63.6693     127 -63.7154     128 -63.5211     129 -63.5280     130 -63.3700
     131 -63.3162     132 -64.0151     133 -63.6936     134 -64.8357     135 -64.0219
     136 -63.3599     137 -63.3749     138 -63.6879     139 -63.6725     140 -63.8198
     141 -63.8259     142 -63.3474     143 -63.3386     144 -63.4547     145 -63.5015
     146 -63.7928     147 -63.8041     148 -63.4135     149 -63.4952     150 -63.7645
     151 -63.7709     152 -63.9778     153 -63.8838     154 -63.4921     155 -63.3443
     156 -63.7518     157 -63.7461     158 -63.8047     159 -63.8857
 
 
 
 E-fermi :   1.9992     XC(G=0):  -8.8507     alpha+bet :-11.1728


 spin component 1

 k-point     1 :       0.2500    0.2500    0.2500
  band No.  band energies     occupation 
      1     -20.2236      1.00000
      2     -20.0494      1.00000
      3     -19.9778      1.00000
      4     -19.9297      1.00000
      5     -19.8027      1.00000
      6     -19.7508      1.00000
      7     -19.7045      1.00000
      8     -19.6453      1.00000
      9     -19.5529      1.00000
     10     -19.5203      1.00000
     11     -19.4793      1.00000
     12     -19.4211      1.00000
     13     -19.4071      1.00000
     14     -19.3610      1.00000
     15     -19.3543      1.00000
     16     -19.3263      1.00000
     17     -19.2573      1.00000
     18     -19.2400      1.00000
     19     -19.2260      1.00000
     20     -19.2203      1.00000
     21     -19.1919      1.00000
     22     -19.1680      1.00000
     23     -19.1589      1.00000
     24     -19.1413      1.00000
     25     -19.1150      1.00000
     26     -19.0947      1.00000
     27     -19.0867      1.00000
     28     -19.0494      1.00000
     29     -19.0384      1.00000
     30     -19.0329      1.00000
     31     -19.0114      1.00000
     32     -18.9979      1.00000
     33     -18.9735      1.00000
     34     -18.9624      1.00000
     35     -18.9423      1.00000
     36     -18.9240      1.00000
     37     -18.9087      1.00000
     38     -18.8950      1.00000
     39     -18.8830      1.00000
     40     -18.8662      1.00000
     41     -18.8532      1.00000
     42     -18.8438      1.00000
     43     -18.8274      1.00000
     44     -18.8088      1.00000
     45     -18.7994      1.00000
     46     -18.7841      1.00000
     47     -18.7769      1.00000
     48     -18.7670      1.00000
     49     -18.7416      1.00000
     50     -18.7232      1.00000
     51     -18.7079      1.00000
     52     -18.6990      1.00000
     53     -18.6754      1.00000
     54     -18.6686      1.00000
     55     -18.6607      1.00000
     56     -18.6361      1.00000
     57     -18.6328      1.00000
     58     -18.6215      1.00000
     59     -18.6141      1.00000
     60     -18.6015      1.00000
     61     -18.5913      1.00000
     62     -18.5790      1.00000
     63     -18.5677      1.00000
     64     -18.5527      1.00000
     65     -18.5413      1.00000
     66     -18.5349      1.00000
     67     -18.5281      1.00000
     68     -18.5247      1.00000
     69     -18.5140      1.00000
     70     -18.5075      1.00000
     71     -18.4928      1.00000
     72     -18.4891      1.00000
     73     -18.4847      1.00000
     74     -18.4736      1.00000
     75     -18.4672      1.00000
     76     -18.4506      1.00000
     77     -18.4362      1.00000
     78     -18.4278      1.00000
     79     -18.4195      1.00000
     80     -18.4165      1.00000
     81     -18.4104      1.00000
     82     -18.4033      1.00000
     83     -18.3913      1.00000
     84     -18.3789      1.00000
     85     -18.3738      1.00000
     86     -18.3573      1.00000
     87     -18.3392      1.00000
     88     -18.3140      1.00000
     89     -18.3011      1.00000
     90     -18.2814      1.00000
     91     -18.0963      1.00000
     92     -18.0184      1.00000
     93     -17.9869      1.00000
     94     -17.9744      1.00000
     95     -17.8647      1.00000
     96     -16.8102      1.00000
     97     -14.5296      1.00000
     98     -14.5105      1.00000
     99     -14.5007      1.00000
    100     -14.4942      1.00000
    101     -14.4823      1.00000
    102     -14.4670      1.00000
    103     -14.4663      1.00000
    104     -14.4602      1.00000
    105     -14.4567      1.00000
    106     -14.4510      1.00000
    107     -14.4475      1.00000
    108     -14.4456      1.00000
    109     -14.4413      1.00000
    110     -14.4349      1.00000
    111     -14.4322      1.00000
    112     -14.4293      1.00000
    113     -14.4264      1.00000
    114     -14.4197      1.00000
    115     -14.4161      1.00000
    116     -14.4145      1.00000
    117     -14.4092      1.00000
    118     -14.4064      1.00000
    119     -14.4048      1.00000
    120     -14.3968      1.00000
    121     -14.3932      1.00000
    122     -14.3892      1.00000
    123     -14.3847      1.00000
    124     -14.3820      1.00000
    125     -14.3793      1.00000
    126     -14.3771      1.00000
    127     -14.3728      1.00000
    128     -14.3724      1.00000
    129     -14.3671      1.00000
    130     -14.3611      1.00000
    131     -14.3574      1.00000
    132     -14.3514      1.00000
    133     -14.3499      1.00000
    134     -14.3489      1.00000
    135     -14.3448      1.00000
    136     -14.3424      1.00000
    137     -14.3368      1.00000
    138     -14.3362      1.00000
    139     -14.3322      1.00000
    140     -14.3305      1.00000
    141     -14.3276      1.00000
    142     -14.3241      1.00000
    143     -14.3208      1.00000
    144     -14.3181      1.00000
    145     -14.3154      1.00000
    146     -14.3129      1.00000
    147     -14.3099      1.00000
    148     -14.3079      1.00000
    149     -14.3053      1.00000
    150     -14.3017      1.00000
    151     -14.2985      1.00000
    152     -14.2951      1.00000
    153     -14.2939      1.00000
    154     -14.2935      1.00000
    155     -14.2882      1.00000
    156     -14.2849      1.00000
    157     -14.2833      1.00000
    158     -14.2809      1.00000
    159     -14.2786      1.00000
    160     -14.2762      1.00000
    161     -14.2748      1.00000
    162     -14.2702      1.00000
    163     -14.2641      1.00000
    164     -14.2618      1.00000
    165     -14.2605      1.00000
    166     -14.2595      1.00000
    167     -14.2567      1.00000
    168     -14.2529      1.00000
    169     -14.2523      1.00000
    170     -14.2488      1.00000
    171     -14.2454      1.00000
    172     -14.2436      1.00000
    173     -14.2416      1.00000
    174     -14.2391      1.00000
    175     -14.2369      1.00000
    176     -14.2340      1.00000
    177     -14.2299      1.00000
    178     -14.2286      1.00000
    179     -14.2259      1.00000
    180     -14.2243      1.00000
    181     -14.2205      1.00000
    182     -14.2182      1.00000
    183     -14.2166      1.00000
    184     -14.2133      1.00000
    185     -14.2107      1.00000
    186     -14.2083      1.00000
    187     -14.2056      1.00000
    188     -14.2042      1.00000
    189     -14.2019      1.00000
    190     -14.2010      1.00000
    191     -14.1983      1.00000
    192     -14.1957      1.00000
    193     -14.1945      1.00000
    194     -14.1929      1.00000
    195     -14.1912      1.00000
    196     -14.1874      1.00000
    197     -14.1853      1.00000
    198     -14.1829      1.00000
    199     -14.1807      1.00000
    200     -14.1790      1.00000
    201     -14.1780      1.00000
    202     -14.1750      1.00000
    203     -14.1732      1.00000
    204     -14.1700      1.00000
    205     -14.1675      1.00000
    206     -14.1653      1.00000
    207     -14.1627      1.00000
    208     -14.1615      1.00000
    209     -14.1589      1.00000
    210     -14.1576      1.00000
    211     -14.1561      1.00000
    212     -14.1527      1.00000
    213     -14.1503      1.00000
    214     -14.1491      1.00000
    215     -14.1432      1.00000
    216     -14.1429      1.00000
    217     -14.1410      1.00000
    218     -14.1382      1.00000
    219     -14.1366      1.00000
    220     -14.1348      1.00000
    221     -14.1307      1.00000
    222     -14.1281      1.00000
    223     -14.1258      1.00000
    224     -14.1248      1.00000
    225     -14.1227      1.00000
    226     -14.1202      1.00000
    227     -14.1196      1.00000
    228     -14.1173      1.00000
    229     -14.1152      1.00000
    230     -14.1121      1.00000
    231     -14.1115      1.00000
    232     -14.1093      1.00000
    233     -14.1053      1.00000
    234     -14.1040      1.00000
    235     -14.1005      1.00000
    236     -14.0968      1.00000
    237     -14.0947      1.00000
    238     -14.0927      1.00000
    239     -14.0913      1.00000
    240     -14.0892      1.00000
    241     -14.0877      1.00000
    242     -14.0834      1.00000
    243     -14.0815      1.00000
    244     -14.0807      1.00000
    245     -14.0779      1.00000
    246     -14.0766      1.00000
    247     -14.0738      1.00000
    248     -14.0692      1.00000
    249     -14.0687      1.00000
    250     -14.0663      1.00000
    251     -14.0647      1.00000
    252     -14.0615      1.00000
    253     -14.0576      1.00000
    254     -14.0547      1.00000
    255     -14.0518      1.00000
    256     -14.0474      1.00000
    257     -14.0446      1.00000
    258     -14.0430      1.00000
    259     -14.0397      1.00000
    260     -14.0376      1.00000
    261     -14.0347      1.00000
    262     -14.0310      1.00000
    263     -14.0294      1.00000
    264     -14.0256      1.00000
    265     -14.0218      1.00000
    266     -14.0199      1.00000
    267     -14.0167      1.00000
    268     -14.0148      1.00000
    269     -14.0121      1.00000
    270     -14.0091      1.00000
    271     -14.0059      1.00000
    272     -14.0026      1.00000
    273     -14.0007      1.00000
    274     -13.9972      1.00000
    275     -13.9964      1.00000
    276     -13.9940      1.00000
    277     -13.9933      1.00000
    278     -13.9894      1.00000
    279     -13.9868      1.00000
    280     -13.9850      1.00000
    281     -13.9820      1.00000
    282     -13.9809      1.00000
    283     -13.9778      1.00000
    284     -13.9734      1.00000
    285     -13.9700      1.00000
    286     -13.9678      1.00000
    287     -13.9662      1.00000
    288     -13.9611      1.00000
    289     -13.9603      1.00000
    290     -13.9573      1.00000
    291     -13.9547      1.00000
    292     -13.9526      1.00000
    293     -13.9498      1.00000
    294     -13.9468      1.00000
    295     -13.9442      1.00000
    296     -13.9426      1.00000
    297     -13.9392      1.00000
    298     -13.9369      1.00000
    299     -13.9297      1.00000
    300     -13.9285      1.00000
    301     -13.9262      1.00000
    302     -13.9258      1.00000
    303     -13.9224      1.00000
    304     -13.9198      1.00000
    305     -13.9184      1.00000
    306     -13.9142      1.00000
    307     -13.9117      1.00000
    308     -13.9080      1.00000
    309     -13.9052      1.00000
    310     -13.9030      1.00000
    311     -13.9010      1.00000
    312     -13.8969      1.00000
    313     -13.8936      1.00000
    314     -13.8927      1.00000
    315     -13.8921      1.00000
    316     -13.8854      1.00000
    317     -13.8818      1.00000
    318     -13.8781      1.00000
    319     -13.8748      1.00000
    320     -13.8725      1.00000
    321     -13.8683      1.00000
    322     -13.8628      1.00000
    323     -13.8596      1.00000
    324     -13.8529      1.00000
    325     -13.8513      1.00000
    326     -13.8448      1.00000
    327     -13.8385      1.00000
    328     -13.8263      1.00000
    329     -13.8246      1.00000
    330     -13.8139      1.00000
    331     -13.8069      1.00000
    332     -13.7969      1.00000
    333     -13.7895      1.00000
    334     -13.7766      1.00000
    335     -13.7721      1.00000
    336     -13.7678      1.00000
    337     -13.7487      1.00000
    338     -13.7350      1.00000
    339     -13.7258      1.00000
    340     -13.7186      1.00000
    341     -13.7053      1.00000
    342     -13.6960      1.00000
    343     -13.6898      1.00000
    344     -13.6768      1.00000
    345     -13.6701      1.00000
    346     -13.6684      1.00000
    347     -13.6597      1.00000
    348     -13.6554      1.00000
    349     -13.6499      1.00000
    350     -13.6385      1.00000
    351     -13.6315      1.00000
    352     -13.6245      1.00000
    353     -13.6101      1.00000
    354     -13.6049      1.00000
    355     -13.6026      1.00000
    356     -13.5964      1.00000
    357     -13.5898      1.00000
    358     -13.5833      1.00000
    359     -13.5779      1.00000
    360     -13.5740      1.00000
    361     -13.5595      1.00000
    362     -13.5511      1.00000
    363     -13.5453      1.00000
    364     -13.5362      1.00000
    365     -13.5217      1.00000
    366     -13.5149      1.00000
    367     -13.5051      1.00000
    368     -13.4905      1.00000
    369     -13.4841      1.00000
    370     -13.4707      1.00000
    371     -13.4645      1.00000
    372     -13.4534      1.00000
    373     -13.4436      1.00000
    374     -13.4375      1.00000
    375     -13.4299      1.00000
    376     -13.4257      1.00000
    377     -13.4214      1.00000
    378     -13.4133      1.00000
    379     -13.3988      1.00000
    380     -13.3936      1.00000
    381     -13.3833      1.00000
    382     -13.3715      1.00000
    383     -13.3637      1.00000
    384     -13.3581      1.00000
    385     -13.3277      1.00000
    386     -13.3102      1.00000
    387     -13.3022      1.00000
    388     -13.2901      1.00000
    389     -13.2858      1.00000
    390     -13.2664      1.00000
    391     -13.2543      1.00000
    392     -13.2393      1.00000
    393     -13.2305      1.00000
    394     -13.2153      1.00000
    395     -13.1854      1.00000
    396     -13.1765      1.00000
    397     -13.1504      1.00000
    398     -13.1295      1.00000
    399     -13.1214      1.00000
    400     -13.1062      1.00000
    401     -13.0874      1.00000
    402     -13.0757      1.00000
    403     -13.0303      1.00000
    404     -13.0179      1.00000
    405     -12.9846      1.00000
    406     -12.9665      1.00000
    407     -12.9440      1.00000
    408     -12.8995      1.00000
    409     -12.7562      1.00000
    410     -12.7123      1.00000
    411     -12.5582      1.00000
    412      -6.6636      1.00000
    413      -6.4728      1.00000
    414      -6.4401      1.00000
    415      -6.3943      1.00000
    416      -6.3626      1.00000
    417      -6.2831      1.00000
    418      -6.1690      1.00000
    419      -6.1184      1.00000
    420      -6.0905      1.00000
    421      -6.0274      1.00000
    422      -5.9791      1.00000
    423      -5.9400      1.00000
    424      -5.9193      1.00000
    425      -5.9018      1.00000
    426      -5.8762      1.00000
    427      -5.8437      1.00000
    428      -5.8180      1.00000
    429      -5.8051      1.00000
    430      -5.7793      1.00000
    431      -5.7507      1.00000
    432      -5.7106      1.00000
    433      -5.6933      1.00000
    434      -5.6789      1.00000
    435      -5.6138      1.00000
    436      -5.5852      1.00000
    437      -5.5679      1.00000
    438      -5.5464      1.00000
    439      -5.4887      1.00000
    440      -5.4763      1.00000
    441      -5.4214      1.00000
    442      -5.3686      1.00000
    443      -5.3263      1.00000
    444      -5.2917      1.00000
    445      -5.2502      1.00000
    446      -5.2349      1.00000
    447      -5.1601      1.00000
    448      -5.1322      1.00000
    449      -5.0921      1.00000
    450      -5.0348      1.00000
    451      -5.0066      1.00000
    452      -4.9548      1.00000
    453      -4.9150      1.00000
    454      -4.8389      1.00000
    455      -4.8157      1.00000
    456      -4.7304      1.00000
    457      -4.6451      1.00000
    458      -4.6236      1.00000
    459      -4.5831      1.00000
    460      -4.5686      1.00000
    461      -4.5258      1.00000
    462      -4.5210      1.00000
    463      -4.4866      1.00000
    464      -4.4511      1.00000
    465      -4.4434      1.00000
    466      -4.3847      1.00000
    467      -4.3430      1.00000
    468      -4.2892      1.00000
    469      -4.2707      1.00000
    470      -4.2091      1.00000
    471      -4.1339      1.00000
    472      -4.1005      1.00000
    473      -4.0661      1.00000
    474      -4.0170      1.00000
    475      -3.9943      1.00000
    476      -3.9683      1.00000
    477      -3.9227      1.00000
    478      -3.8653      1.00000
    479      -3.8529      1.00000
    480      -3.8112      1.00000
    481      -3.7753      1.00000
    482      -3.7585      1.00000
    483      -3.7345      1.00000
    484      -3.6805      1.00000
    485      -3.6476      1.00000
    486      -3.6370      1.00000
    487      -3.5849      1.00000
    488      -3.5506      1.00000
    489      -3.5199      1.00000
    490      -3.4913      1.00000
    491      -3.4605      1.00000
    492      -3.4496      1.00000
    493      -3.4303      1.00000
    494      -3.4137      1.00000
    495      -3.3798      1.00000
    496      -3.3549      1.00000
    497      -3.3207      1.00000
    498      -3.2988      1.00000
    499      -3.2685      1.00000
    500      -3.2372      1.00000
    501      -3.1939      1.00000
    502      -3.1573      1.00000
    503      -3.1318      1.00000
    504      -3.0845      1.00000
    505      -3.0728      1.00000
    506      -3.0282      1.00000
    507      -2.9830      1.00000
    508      -2.9726      1.00000
    509      -2.9603      1.00000
    510      -2.9386      1.00000
    511      -2.9023      1.00000
    512      -2.8599      1.00000
    513      -2.8303      1.00000
    514      -2.8091      1.00000
    515      -2.7883      1.00000
    516      -2.7478      1.00000
    517      -2.7348      1.00000
    518      -2.6958      1.00000
    519      -2.6837      1.00000
    520      -2.6610      1.00000
    521      -2.6546      1.00000
    522      -2.6310      1.00000
    523      -2.6237      1.00000
    524      -2.5886      1.00000
    525      -2.5569      1.00000
    526      -2.5298      1.00000
    527      -2.5029      1.00000
    528      -2.4864      1.00000
    529      -2.4517      1.00000
    530      -2.4360      1.00000
    531      -2.4001      1.00000
    532      -2.3876      1.00000
    533      -2.3618      1.00000
    534      -2.3456      1.00000
    535      -2.3287      1.00000
    536      -2.3098      1.00000
    537      -2.3011      1.00000
    538      -2.2770      1.00000
    539      -2.2422      1.00000
    540      -2.2217      1.00000
    541      -2.2145      1.00000
    542      -2.1958      1.00000
    543      -2.1725      1.00000
    544      -2.1558      1.00000
    545      -2.1272      1.00000
    546      -2.1080      1.00000
    547      -2.0783      1.00000
    548      -2.0669      1.00000
    549      -2.0494      1.00000
    550      -2.0166      1.00000
    551      -2.0000      1.00000
    552      -1.9757      1.00000
    553      -1.9295      1.00000
    554      -1.9012      1.00000
    555      -1.8821      1.00000
    556      -1.8333      1.00000
    557      -1.8058      1.00000
    558      -1.7888      1.00000
    559      -1.7522      1.00000
    560      -1.7356      1.00000
    561      -1.6970      1.00000
    562      -1.6877      1.00000
    563      -1.6541      1.00000
    564      -1.6527      1.00000
    565      -1.6367      1.00000
    566      -1.6062      1.00000
    567      -1.5990      1.00000
    568      -1.5683      1.00000
    569      -1.5366      1.00000
    570      -1.5218      1.00000
    571      -1.5053      1.00000
    572      -1.4978      1.00000
    573      -1.4852      1.00000
    574      -1.4640      1.00000
    575      -1.4470      1.00000
    576      -1.4130      1.00000
    577      -1.3847      1.00000
    578      -1.3684      1.00000
    579      -1.3448      1.00000
    580      -1.3138      1.00000
    581      -1.3057      1.00000
    582      -1.2920      1.00000
    583      -1.2678      1.00000
    584      -1.2508      1.00000
    585      -1.2223      1.00000
    586      -1.2077      1.00000
    587      -1.1943      1.00000
    588      -1.1646      1.00000
    589      -1.1476      1.00000
    590      -1.1378      1.00000
    591      -1.1250      1.00000
    592      -1.0926      1.00000
    593      -1.0671      1.00000
    594      -1.0470      1.00000
    595      -1.0259      1.00000
    596      -1.0099      1.00000
    597      -0.9832      1.00000
    598      -0.9668      1.00000
    599      -0.9561      1.00000
    600      -0.9296      1.00000
    601      -0.9135      1.00000
    602      -0.8787      1.00000
    603      -0.8556      1.00000
    604      -0.8455      1.00000
    605      -0.8249      1.00000
    606      -0.8000      1.00000
    607      -0.7887      1.00000
    608      -0.7589      1.00000
    609      -0.7407      1.00000
    610      -0.7231      1.00000
    611      -0.7002      1.00000
    612      -0.6902      1.00000
    613      -0.6679      1.00000
    614      -0.6529      1.00000
    615      -0.6345      1.00000
    616      -0.6193      1.00000
    617      -0.5972      1.00000
    618      -0.5761      1.00000
    619      -0.5627      1.00000
    620      -0.5531      1.00000
    621      -0.5293      1.00000
    622      -0.5174      1.00000
    623      -0.5083      1.00000
    624      -0.4970      1.00000
    625      -0.4816      1.00000
    626      -0.4609      1.00000
    627      -0.4481      1.00000
    628      -0.4321      1.00000
    629      -0.4208      1.00000
    630      -0.3965      1.00000
    631      -0.3842      1.00000
    632      -0.3706      1.00000
    633      -0.3584      1.00000
    634      -0.3508      1.00000
    635      -0.3197      1.00000
    636      -0.3094      1.00000
    637      -0.2997      1.00000
    638      -0.2862      1.00000
    639      -0.2724      1.00000
    640      -0.2427      1.00000
    641      -0.2320      1.00000
    642      -0.2240      1.00000
    643      -0.2124      1.00000
    644      -0.1968      1.00000
    645      -0.1932      1.00000
    646      -0.1839      1.00000
    647      -0.1698      1.00000
    648      -0.1575      1.00000
    649      -0.1374      1.00000
    650      -0.1340      1.00000
    651      -0.1079      1.00000
    652      -0.0957      1.00000
    653      -0.0920      1.00000
    654      -0.0763      1.00000
    655      -0.0671      1.00000
    656      -0.0565      1.00000
    657      -0.0490      1.00000
    658      -0.0362      1.00000
    659      -0.0211      1.00000
    660       0.0015      1.00000
    661       0.0129      1.00000
    662       0.0264      1.00000
    663       0.0306      1.00000
    664       0.0426      1.00000
    665       0.0567      1.00000
    666       0.0718      1.00000
    667       0.0768      1.00000
    668       0.0965      1.00000
    669       0.1097      1.00000
    670       0.1404      1.00000
    671       0.1471      1.00000
    672       0.1564      1.00000
    673       0.1745      1.00000
    674       0.1924      1.00000
    675       0.2068      1.00000
    676       0.2328      1.00000
    677       0.2403      1.00000
    678       0.2554      1.00000
    679       0.2735      1.00000
    680       0.2938      1.00000
    681       0.3134      1.00000
    682       0.3311      1.00000
    683       0.3578      1.00000
    684       0.3916      1.00000
    685       0.4133      1.00000
    686       0.4214      1.00000
    687       0.4485      1.00000
    688       0.4830      1.00000
    689       0.5071      1.00000
    690       0.5160      1.00000
    691       0.5486      1.00000
    692       0.5679      1.00000
    693       0.6130      1.00000
    694       0.6415      1.00000
    695       0.6684      1.00000
    696       0.8712      1.00000
    697       1.0176      1.00000
[...]
      1.94060     12.12322      0.13757        -0.006165     -0.002504     -0.006122
      5.87454      0.03035      0.02779         0.006122      0.000741      0.000106
      4.00936      1.51634     10.00373        -0.006435     -0.002300     -0.002759
      5.90062     -0.00122      5.82714        -0.000174     -0.004887      0.002120
      5.97029     12.12734      8.62243         0.000070     -0.015944     -0.001426
      9.80643      3.05166      5.89562        -0.002510      0.002424      0.001941
      0.03911      4.55486     10.08099        -0.003804     -0.005036     -0.003195
     11.83407      4.55606      4.36352         0.001611     -0.002160     -0.000036
      9.95237      3.02197      8.52244        -0.001956     -0.003148     -0.004976
      1.90379      3.01514      5.91227         0.001232     -0.003052      0.010322
      3.88222      7.58916      7.37803         0.004201     -0.004643      0.007758
      3.92863      4.55764      1.70406        -0.001561      0.000631     -0.005812
      5.90569      3.12915      2.79710        -0.000572      0.002082      0.000810
      5.97903      3.10441      0.10846        -0.000621      0.007090      0.008575
      3.89040      4.56073      4.26967         0.013460     -0.004182      0.017126
      7.96652      4.55970     -1.40676        -0.000641     -0.003524     -0.012535
      2.02931      3.00338      2.75459        -0.001279     -0.006384     -0.005577
      9.83542      3.00371      0.11229         0.000410     -0.005525      0.005503
     11.85020      4.55564      1.39045         0.005977      0.002130      0.004406
      0.01009      4.55532      1.47302        -0.004600     -0.002066     -0.005624
      9.92287      3.02444      2.74343        -0.002674     -0.004956      0.008930
      1.92649      3.00442      0.13653         0.000915      0.000136     -0.003626
      7.98329      1.50877      7.08607         0.002938      0.006415     -0.006679
      3.88597      1.49274      7.37768         0.000559      0.005589      0.001511
      7.93822      4.55951      4.50984         0.015992      0.004566      0.000860
      7.98532      7.58081      7.08993        -0.001020     -0.004014     -0.007714
      1.92476      9.11256      0.13965         0.000891      0.003534     -0.001267
      9.93016      9.11723      2.73770        -0.001002      0.003370      0.007694
     11.82345     10.62680     -1.42651        -0.004086      0.006026     -0.000341
      0.03715     10.62670      4.30211         0.001114      0.005029      0.000407
      9.81338      9.12154      0.12283         0.001670      0.004567     -0.006483
      2.04721      9.11881      2.75549         0.001159      0.004115      0.006140
      7.85426     10.62224     -1.30896        -0.001072     -0.002723     -0.009479
      4.01656     10.62288      4.18205         0.001253     -0.006888      0.010533
      5.87483      9.05100      0.02389         0.006365     -0.003528     -0.001836
      5.98942      9.04853      2.85316         0.004287     -0.000705      0.002401
      3.90292     10.61832      1.58177        -0.001920     -0.000740     -0.003135
      7.95808     10.61924      1.29034         0.003453      0.000627      0.010462
      1.93178      9.10319      5.93188         0.002089      0.005924      0.007028
      9.92801      9.10485      8.52403        -0.001249      0.003253     -0.005353
     11.83151     10.62507      4.37358         0.002291      0.003649     -0.000688
      0.02577     10.62449     10.08296        -0.005048      0.002176     -0.000059
      9.81195      9.09517      5.90612        -0.007885      0.000137     -0.002593
      2.04550      9.10871      8.54945         0.011035     -0.001434      0.001365
      7.87227     10.62117      4.45851         0.004621     -0.001895      0.007848
      3.99770     10.62268      9.98044        -0.000138     -0.004912     -0.007229
      5.90069      9.09638      5.82532         0.000957     -0.010382      0.000010
      5.96909      9.10006      8.62573        -0.008661      0.003028     -0.002161
      3.88860     10.61724      7.36960        -0.001806      0.004317     -0.003596
      7.97792     10.61896      7.07620         0.000700      0.004791      0.000562
 -----------------------------------------------------------------------------------
    total drift:                               -0.147201     -0.134155      0.162090


--------------------------------------------------------------------------------------------------------



  FREE ENERGIE OF THE ION-ELECTRON SYSTEM (eV)
  ---------------------------------------------------
  free  energy   TOTEN  =     -1492.29411540 eV

  energy  without entropy=    -1492.29411540  energy(sigma->0) =    -1492.29411540
 
 d Force = 0.2021898E-04[-0.854E-04, 0.126E-03]  d Energy = 0.3185804E-04-0.116E-04
 d Force =-0.4111963E-01[-0.424E-01,-0.398E-01]  d Ewald  =-0.4112001E-01 0.373E-06


--------------------------------------------------------------------------------------------------------


    POTLOK:  cpu time    0.5012: real time    0.5013


--------------------------------------------------------------------------------------------------------




--------------------------------------------------------------------------------------------------------


  
 reached required accuracy - stopping structural energy minimisation
 writing wavefunctions
     LOOP+:  cpu time 1034.7585: real time 1035.3928
    4ORBIT:  cpu time    0.0000: real time    0.0000
 


 total charge     
 
# of ion     s       p       d       tot
----------------------------------------
  1        0.650   0.814  10.271  11.735
  2        0.758   1.020  10.311  12.089
  3        0.757   1.013  10.306  12.075
  4        0.759   1.022  10.311  12.093
  5        0.659   0.836  10.277  11.772
  6        0.659   0.830  10.271  11.760
  7        0.759   1.023  10.312  12.093
  8        0.755   1.012  10.309  12.075
  9        0.657   0.826  10.269  11.753
 10        0.757   1.014  10.306  12.077
 11        0.753   1.004  10.303  12.060
 12        0.659   0.835  10.276  11.771
 13        0.660   0.835  10.275  11.769
 14        0.659   0.836  10.277  11.773
 15        0.757   1.012  10.305  12.073
 16        0.756   1.008  10.302  12.066
 17        0.652   0.806  10.257  11.714
 18        0.650   0.799  10.251  11.701
 19        0.672   0.852  10.281  11.805
 20        0.674   0.855  10.283  11.812
 21        0.745   0.979  10.290  12.014
 22        0.674   0.864  10.290  11.827
 23        0.745   0.975  10.287  12.007
 24        0.657   0.832  10.274  11.763
 25        0.757   1.014  10.306  12.077
 26        0.760   1.024  10.312  12.096
 27        0.758   1.022  10.312  12.092
 28        0.659   0.837  10.278  11.773
 29        0.659   0.839  10.280  11.777
 30        0.743   0.966  10.282  11.991
 31        0.744   0.971  10.285  11.999
 32        0.657   0.831  10.274  11.762
 33        0.658   0.832  10.274  11.764
 34        0.759   1.021  10.311  12.090
 35        0.676   0.867  10.291  11.834
 36        0.664   0.840  10.275  11.780
 37        0.757   1.016  10.308  12.082
 38        0.767   1.046  10.324  12.137
 39        0.763   1.029  10.314  12.106
 40        0.658   0.826  10.270  11.754
 41        0.666   0.851  10.283  11.801
 42        0.689   0.859  10.280  11.828
 43        0.759   1.022  10.311  12.092
 44        0.761   1.029  10.315  12.105
 45        0.660   0.831  10.272  11.763
 46        0.659   0.839  10.280  11.777
 47        0.689   0.849  10.271  11.809
 48        0.756   1.011  10.305  12.071
 49        0.756   1.013  10.306  12.075
 50        0.657   0.834  10.276  11.767
 51        0.657   0.831  10.274  11.763
 52        0.751   0.995  10.296  12.042
 53        0.751   0.994  10.295  12.040
 54        0.655   0.820  10.266  11.741
 55        0.655   0.821  10.266  11.743
 56        0.757   1.013  10.305  12.075
 57        0.759   1.020  10.309  12.088
 58        0.659   0.833  10.274  11.766
 59        0.658   0.832  10.275  11.765
 60        0.758   1.016  10.308  12.082
 61        0.757   1.014  10.306  12.077
 62        0.656   0.822  10.266  11.744
 63        0.659   0.825  10.267  11.750
 64        1.585   3.568   0.000   5.152
 65        1.586   3.575   0.000   5.161
 66        1.579   3.611   0.000   5.189
 67        1.579   3.595   0.000   5.174
 68        1.580   3.598   0.000   5.177
 69        1.578   3.616   0.000   5.195
 70        1.579   3.615   0.000   5.194
 71        1.578   3.619   0.000   5.197
 72        1.579   3.584   0.000   5.163
 73        1.579   3.584   0.000   5.163
 74        1.586   3.580   0.000   5.167
 75        1.585   3.568   0.000   5.153
 76        1.578   3.614   0.000   5.192
 77        1.579   3.618   0.000   5.196
 78        1.580   3.588   0.000   5.168
 79        1.580   3.590   0.000   5.170
 80        1.584   3.576   0.000   5.160
 81        1.584   3.575   0.000   5.159
 82        1.581   3.588   0.000   5.168
 83        1.577   3.616   0.000   5.193
 84        1.580   3.584   0.000   5.164
 85        1.581   3.584   0.000   5.165
 86        1.585   3.574   0.000   5.159
 87        1.585   3.574   0.000   5.159
 88        1.578   3.616   0.000   5.194
 89        1.580   3.589   0.000   5.169
 90        1.588   3.544   0.000   5.133
 91        1.586   3.571   0.000   5.157
 92        1.586   3.576   0.000   5.161
 93        1.584   3.577   0.000   5.161
 94        1.585   3.574   0.000   5.158
 95        1.578   3.615   0.000   5.193
 96        1.579   3.617   0.000   5.196
 97        1.580   3.588   0.000   5.168
 98        1.580   3.586   0.000   5.167
 99        1.584   3.575   0.000   5.159
100        1.584   3.575   0.000   5.159
101        1.579   3.583   0.000   5.162
102        1.577   3.604   0.000   5.181
103        1.581   3.584   0.000   5.164
104        1.581   3.584   0.000   5.165
105        1.584   3.576   0.000   5.160
106        1.584   3.578   0.000   5.162
107        1.578   3.616   0.000   5.194
108        1.579   3.617   0.000   5.195
109        1.581   3.589   0.000   5.170
110        1.580   3.589   0.000   5.169
111        1.577   3.604   0.000   5.181
112        1.579   3.584   0.000   5.163
113        1.578   3.618   0.000   5.196
114        1.579   3.620   0.000   5.199
115        1.584   3.563   0.000   5.147
116        1.578   3.612   0.000   5.190
117        1.579   3.613   0.000   5.192
118        1.579   3.585   0.000   5.164
119        1.579   3.586   0.000   5.166
120        1.584   3.568   0.000   5.152
121        1.586   3.574   0.000   5.159
122        1.581   3.582   0.000   5.163
123        1.580   3.591   0.000   5.171
124        1.583   3.593   0.000   5.176
125        1.583   3.588   0.000   5.170
126        1.584   3.570   0.000   5.154
127        1.584   3.570   0.000   5.155
128        1.579   3.602   0.000   5.181
129        1.580   3.599   0.000   5.179
130        1.579   3.587   0.000   5.166
131        1.579   3.591   0.000   5.170
132        1.584   3.577   0.000   5.161
133        1.584   3.569   0.000   5.154
134        1.627   3.286   0.000   4.913
135        1.584   3.577   0.000   5.161
136        1.580   3.585   0.000   5.165
137        1.580   3.586   0.000   5.166
138        1.578   3.615   0.000   5.193
139        1.578   3.614   0.000   5.193
140        1.584   3.573   0.000   5.157
141        1.584   3.571   0.000   5.155
142        1.580   3.579   0.000   5.159
143        1.580   3.579   0.000   5.159
144        1.577   3.600   0.000   5.177
145        1.577   3.600   0.000   5.177
146        1.584   3.573   0.000   5.157
147        1.584   3.576   0.000   5.161
148        1.580   3.583   0.000   5.163
149        1.580   3.585   0.000   5.165
150        1.578   3.616   0.000   5.194
151        1.578   3.615   0.000   5.193
152        1.584   3.569   0.000   5.153
153        1.584   3.572   0.000   5.155
154        1.580   3.589   0.000   5.169
155        1.580   3.584   0.000   5.164
156        1.578   3.613   0.000   5.191
157        1.578   3.616   0.000   5.193
158        1.584   3.571   0.000   5.155
159        1.584   3.570   0.000   5.155
------------------------------------------------
tot      196.332 402.112 648.1971246.642
 


 magnetization (x)
 
# of ion     s       p       d       tot
----------------------------------------
  1       -0.000  -0.000  -0.000  -0.000
  2        0.000   0.000   0.000   0.000
  3       -0.000   0.000   0.000   0.000
  4       -0.000  -0.000   0.000  -0.000
  5       -0.000  -0.000  -0.000  -0.000
  6       -0.000   0.000   0.000   0.001
  7       -0.000  -0.000  -0.000  -0.001
  8       -0.000  -0.000   0.000  -0.000
  9       -0.000  -0.000  -0.000  -0.000
 10       -0.000  -0.000  -0.000  -0.001
 11       -0.000  -0.000  -0.000  -0.000
 12       -0.000   0.000   0.000   0.000
 13       -0.000  -0.000  -0.000  -0.000
 14        0.000  -0.000   0.000   0.000
 15       -0.000  -0.000   0.000  -0.000
 16       -0.000   0.000   0.000   0.000
 17       -0.000  -0.000  -0.000  -0.000
 18        0.000  -0.000   0.000   0.000
 19       -0.000   0.000   0.000   0.000
 20       -0.000  -0.000   0.000  -0.000
 21       -0.000  -0.000  -0.000  -0.000
 22       -0.000   0.000   0.000   0.000
 23       -0.000  -0.000  -0.000  -0.000
 24       -0.000   0.000   0.000   0.000
 25       -0.000   0.000   0.000   0.000
 26       -0.000  -0.000   0.000  -0.000
 27        0.000   0.000   0.000   0.000
 28       -0.000   0.000   0.000   0.000
 29        0.000   0.000   0.000   0.000
 30       -0.000  -0.000  -0.000  -0.000
 31       -0.000  -0.000  -0.000  -0.000
 32       -0.000  -0.000  -0.000  -0.000
 33       -0.000  -0.000  -0.000  -0.000
 34       -0.000  -0.000   0.000  -0.000
 35       -0.000  -0.000   0.000  -0.000
 36       -0.005  -0.008   0.000  -0.013
 37       -0.000   0.000   0.000   0.000
 38       -0.000  -0.000  -0.000  -0.000
 39       -0.000   0.000   0.000   0.000
 40       -0.000  -0.000  -0.000  -0.000
 41       -0.005  -0.008   0.000  -0.013
 42        0.000   0.000   0.000   0.000
 43        0.000   0.000   0.000   0.000
 44       -0.000  -0.000   0.000  -0.000
 45       -0.000   0.000   0.000   0.000
 46       -0.000  -0.000  -0.000  -0.000
 47        0.000  -0.000   0.000   0.000
 48        0.000   0.000   0.000   0.000
 49       -0.000   0.000   0.000   0.000
 50       -0.000   0.000   0.000  -0.000
 51        0.000   0.000   0.000   0.000
 52       -0.000  -0.000   0.000  -0.000
 53       -0.000  -0.000   0.000  -0.000
 54       -0.000  -0.000  -0.000  -0.000
 55       -0.000  -0.000  -0.000  -0.000
 56        0.000   0.000   0.000   0.000
 57       -0.000  -0.000   0.000   0.000
 58       -0.000  -0.000   0.000  -0.000
 59        0.000   0.000   0.000   0.000
 60       -0.000  -0.000   0.000  -0.000
 61       -0.000  -0.000   0.000  -0.000
 62       -0.000   0.000   0.000   0.000
 63       -0.000  -0.000  -0.000  -0.000
 64       -0.000   0.000   0.000  -0.000
 65       -0.000   0.000   0.000  -0.000
 66       -0.000   0.000   0.000   0.000
 67        0.000  -0.000   0.000  -0.000
 68        0.000   0.000   0.000   0.000
 69       -0.000  -0.000   0.000  -0.000
 70       -0.000   0.000   0.000   0.000
 71        0.000   0.004   0.000   0.005
 72       -0.000   0.000   0.000   0.000
 73       -0.000  -0.002   0.000  -0.002
 74       -0.000  -0.000   0.000  -0.000
 75        0.001   0.018   0.000   0.019
 76        0.000   0.001   0.000   0.001
 77       -0.000  -0.000   0.000  -0.000
 78        0.000   0.000   0.000   0.000
 79       -0.000   0.000   0.000   0.000
 80       -0.000   0.000   0.000   0.000
 81        0.000   0.000   0.000   0.000
 82        0.000   0.009   0.000   0.009
 83        0.000   0.004   0.000   0.004
 84       -0.000   0.000   0.000   0.000
 85       -0.000   0.000   0.000   0.000
 86        0.000   0.000   0.000   0.000
 87       -0.000   0.000   0.000   0.000
 88        0.000   0.000   0.000   0.000
 89       -0.000   0.001   0.000   0.001
 90        0.000  -0.000   0.000  -0.000
 91       -0.000   0.000   0.000   0.000
 92       -0.000   0.000   0.000   0.000
 93        0.000   0.000   0.000   0.000
 94       -0.000   0.000   0.000   0.000
 95        0.000   0.001   0.000   0.001
 96       -0.000  -0.000   0.000  -0.000
 97        0.000   0.000   0.000   0.000
 98        0.000   0.000   0.000   0.000
 99       -0.000   0.000   0.000   0.000
100        0.000   0.000   0.000   0.000
101       -0.000  -0.002   0.000  -0.002
102       -0.000  -0.000   0.000  -0.000
103       -0.000   0.000   0.000   0.000
104       -0.000   0.000   0.000   0.000
105        0.000   0.000   0.000   0.000
106        0.000   0.000   0.000   0.000
107        0.000   0.000   0.000   0.000
108       -0.000  -0.000   0.000  -0.000
109       -0.000   0.000   0.000   0.000
110        0.000   0.000   0.000   0.000
111       -0.000   0.000   0.000   0.000
112        0.000   0.000   0.000   0.000
113       -0.000   0.000   0.000   0.000
114       -0.000   0.000   0.000   0.000
115        0.001   0.018   0.000   0.019
116       -0.000   0.000   0.000   0.000
117       -0.000  -0.000   0.000  -0.000
118        0.000   0.000   0.000   0.000
119       -0.000   0.000   0.000   0.000
120        0.000   0.000   0.000   0.000
121        0.000   0.000   0.000   0.000
122        0.000   0.009   0.000   0.009
123        0.000   0.000   0.000   0.000
124       -0.000  -0.000   0.000  -0.000
125        0.000   0.000   0.000   0.000
126        0.000   0.000   0.000   0.000
127       -0.000   0.000   0.000   0.000
128       -0.000   0.000   0.000   0.000
129        0.000   0.000   0.000   0.000
130       -0.000   0.001   0.000   0.001
131        0.000  -0.000   0.000  -0.000
132        0.000   0.000   0.000   0.000
133        0.000   0.000   0.000   0.000
134        0.014   0.745   0.000   0.759
135        0.000   0.000   0.000   0.000
136        0.000   0.000   0.000   0.000
137       -0.000   0.000   0.000   0.000
138        0.000   0.000   0.000   0.000
139       -0.000   0.000   0.000   0.000
140        0.000   0.000   0.000   0.000
141        0.000   0.000   0.000   0.000
142       -0.000  -0.000   0.000  -0.000
143        0.000   0.000   0.000   0.000
144       -0.000   0.000   0.000  -0.000
145       -0.000  -0.000   0.000  -0.000
146        0.000   0.000   0.000   0.000
147       -0.000   0.000   0.000   0.000
148        0.000   0.000   0.000   0.000
149        0.000   0.000   0.000   0.000
150        0.000   0.000   0.000   0.000
151        0.000   0.000   0.000   0.000
152       -0.000   0.000   0.000   0.000
153        0.000   0.000   0.000   0.000
154       -0.000  -0.000   0.000  -0.000
155        0.000   0.000   0.000   0.000
156       -0.000   0.000   0.000   0.000
157       -0.000   0.000   0.000   0.000
158       -0.000   0.000   0.000   0.000
159        0.000   0.000   0.000   0.000
------------------------------------------------
tot        0.003   0.794   0.002   0.799
 

 total amount of memory used by VASP on root node   141788. kBytes
========================================================================

   base      :      30000. kBytes
   nonlr-proj:      74254. kBytes
   fftplans  :       1403. kBytes
   grid      :      18562. kBytes
   one-center:       4945. kBytes
   HF        :        129. kBytes
   wavefun   :      12495. kBytes
 
  
  
 General timing and accounting informations for this job:
 ========================================================
  
                  Total CPU time used (sec):    20790.521
                            User time (sec):    20544.896
                          System time (sec):      245.626
                         Elapsed time (sec):    20839.673
  
                   Maximum memory used (kb):      698808.
                   Average memory used (kb):           0.
  
                          Minor page faults:     57252525
                          Major page faults:           53
                 Voluntary context switches:       210656
