 vasp.5.4.4.18Apr17-6-g9f103f2a35 (build Jun 06 2017 17:32:29) complex          
  
 executed on      LLNL_Quartz_ifc date 2020.03.09  21:13:20
 running on  288 total cores
 distrk:  each k-point on  288 cores,    1 groups
 distr:  one band on NCORES_PER_BAND=   1 cores,  288 groups


--------------------------------------------------------------------------------------------------------


 INCAR:
 POTCAR:   PAW_PBE Ga_d 06Sep2000                 
 POTCAR:   PAW_PBE Fe_pv 06Sep2000                
 POTCAR:   PAW_PBE O 08Apr2002                    

 ----------------------------------------------------------------------------- 
|                                                                             |
|           W    W    AA    RRRRR   N    N  II  N    N   GGGG   !!!           |
|           W    W   A  A   R    R  NN   N  II  NN   N  G    G  !!!           |
|           W    W  A    A  R    R  N N  N  II  N N  N  G       !!!           |
|           W WW W  AAAAAA  RRRRR   N  N N  II  N  N N  G  GGG   !            |
|           WW  WW  A    A  R   R   N   NN  II  N   NN  G    G                |
|           W    W  A    A  R    R  N    N  II  N    N   GGGG   !!!           |
|                                                                             |
|      For optimal performance we recommend to set                            |
|        NCORE= 4 - approx SQRT( number of cores)                             |
|      NCORE specifies how many cores store one orbital (NPAR=cpu/NCORE).     |
|      This setting can  greatly improve the performance of VASP for DFT.     |
|      The default,   NCORE=1            might be grossly inefficient         |
|      on modern multi-core architectures or massively parallel machines.     |
|      Do your own testing !!!!                                               |
|      Unfortunately you need to use the default for GW and RPA calculations. |
|      (for HF NCORE is supported but not extensively tested yet)             |
|                                                                             |
 ----------------------------------------------------------------------------- 

 POTCAR:   PAW_PBE Ga_d 06Sep2000                 
   VRHFIN =Ga: s2p1                                                             
   LEXCH  = PE                                                                  
   EATOM  =  2149.0616 eV,  157.9516 Ry                                         
                                                                                
   TITEL  = PAW_PBE Ga_d 06Sep2000                                              
   LULTRA =        F    use ultrasoft PP ?                                      
   IUNSCR =        1    unscreen: 0-lin 1-nonlin 2-no                           
   RPACOR =    2.000    partial core radius                                     
   POMASS =   69.723; ZVAL   =   13.000    mass and valenz                      
   RCORE  =    2.300    outmost cutoff radius                                   
   RWIGS  =    2.300; RWIGS  =    1.217    wigner-seitz radius (au A)           
   ENMAX  =  282.697; ENMIN  =  212.022 eV                                      
   ICORE  =        3    local potential                                         
   LCOR   =        T    correct aug charges                                     
   LPAW   =        T    paw PP                                                  
   EAUG   =  490.690                                                            
   DEXC   =    -.001                                                            
   RMAX   =    2.742    core radius for proj-oper                               
   RAUG   =    1.300    factor for augmentation sphere                          
   RDEP   =    2.413    radius for radial grids                                 
   QCUT   =   -4.558; QGAM   =    9.117    optimization parameters              
                                                                                
   Description                                                                  
     l     E      TYP  RCUT    TYP  RCUT                                        
     2   .000     23  2.300                                                     
     2  -.400     23  2.300                                                     
     0   .000     23  2.300                                                     
     0   .000     23  2.300                                                     
     1   .000     23  2.300                                                     
     1   .000     23  2.300                                                     
     3  -.100      7  2.300                                                     
  local pseudopotential read in
  partial core-charges read in
  atomic valenz-charges read in
  non local Contribution for L=           2  read in
    real space projection operators read in
  non local Contribution for L=           2  read in
    real space projection operators read in
  non local Contribution for L=           0  read in
    real space projection operators read in
  non local Contribution for L=           0  read in
    real space projection operators read in
  non local Contribution for L=           1  read in
    real space projection operators read in
  non local Contribution for L=           1  read in
    real space projection operators read in
    PAW grid and wavefunctions read in
 
   number of l-projection  operators is LMAX  =           6
   number of lm-projection operators is LMMAX =          18
 
 POTCAR:   PAW_PBE Fe_pv 06Sep2000                
   VRHFIN =Fe:  3pd7s1                                                          
   LEXCH  = PE                                                                  
   EATOM  =  2456.8974 eV,  180.5769 Ry                                         
                                                                                
   TITEL  = PAW_PBE Fe_pv 06Sep2000                                             
   LULTRA =        F    use ultrasoft PP ?                                      
   IUNSCR =        1    unscreen: 0-lin 1-nonlin 2-no                           
   RPACOR =    1.750    partial core radius                                     
   POMASS =   55.847; ZVAL   =   14.000    mass and valenz                      
   RCORE  =    2.200    outmost cutoff radius                                   
   RWIGS  =    2.200; RWIGS  =    1.164    wigner-seitz radius (au A)           
   ENMAX  =  293.238; ENMIN  =  219.929 eV                                      
   RCLOC  =    1.701    cutoff for local pot                                    
   LCOR   =        T    correct aug charges                                     
   LPAW   =        T    paw PP                                                  
   EAUG   =  578.342                                                            
   DEXC   =    -.002                                                            
   RMAX   =    2.693    core radius for proj-oper                               
   RAUG   =    1.300    factor for augmentation sphere                          
   RDEP   =    2.296    radius for radial grids                                 
   QCUT   =   -4.642; QGAM   =    9.285    optimization parameters              
                                                                                
   Description                                                                  
     l     E      TYP  RCUT    TYP  RCUT                                        
     1   .000     23  2.000                                                     
     1  -.400     23  2.000                                                     
     2   .000     23  2.200                                                     
     2   .000     23  2.200                                                     
     0   .000     23  2.000                                                     
     0  2.000     23  2.000                                                     
     3   .000      7   .000                                                     
  local pseudopotential read in
  partial core-charges read in
  atomic valenz-charges read in
  non local Contribution for L=           1  read in
    real space projection operators read in
  non local Contribution for L=           1  read in
    real space projection operators read in
  non local Contribution for L=           2  read in
    real space projection operators read in
  non local Contribution for L=           2  read in
    real space projection operators read in
  non local Contribution for L=           0  read in
    real space projection operators read in
  non local Contribution for L=           0  read in
    real space projection operators read in
    PAW grid and wavefunctions read in
 
   number of l-projection  operators is LMAX  =           6
   number of lm-projection operators is LMMAX =          18
 
 POTCAR:   PAW_PBE O 08Apr2002                    
   VRHFIN =O: s2p4                                                              
   LEXCH  = PE                                                                  
   EATOM  =   432.3788 eV,   31.7789 Ry                                         
                                                                                
   TITEL  = PAW_PBE O 08Apr2002                                                 
   LULTRA =        F    use ultrasoft PP ?                                      
   IUNSCR =        0    unscreen: 0-lin 1-nonlin 2-no                           
   RPACOR =     .000    partial core radius                                     
   POMASS =   16.000; ZVAL   =    6.000    mass and valenz                      
   RCORE  =    1.520    outmost cutoff radius                                   
   RWIGS  =    1.550; RWIGS  =     .820    wigner-seitz radius (au A)           
   ENMAX  =  400.000; ENMIN  =  300.000 eV                                      
   ICORE  =        2    local potential                                         
   LCOR   =        T    correct aug charges                                     
   LPAW   =        T    paw PP                                                  
   EAUG   =  605.392                                                            
   DEXC   =     .000                                                            
   RMAX   =    2.264    core radius for proj-oper                               
   RAUG   =    1.300    factor for augmentation sphere                          
   RDEP   =    1.550    radius for radial grids                                 
   QCUT   =   -5.520; QGAM   =   11.041    optimization parameters              
                                                                                
   Description                                                                  
     l     E      TYP  RCUT    TYP  RCUT                                        
     0   .000     23  1.200                                                     
     0  -.700     23  1.200                                                     
     1   .000     23  1.520                                                     
     1   .600     23  1.520                                                     
     2   .000      7  1.500                                                     
  local pseudopotential read in
  atomic valenz-charges read in
  non local Contribution for L=           0  read in
    real space projection operators read in
  non local Contribution for L=           0  read in
    real space projection operators read in
  non local Contribution for L=           1  read in
    real space projection operators read in
  non local Contribution for L=           1  read in
    real space projection operators read in
    PAW grid and wavefunctions read in
 
   number of l-projection  operators is LMAX  =           4
   number of lm-projection operators is LMMAX =           8
 
 Optimization of the real space projectors (new method)

 maximal supplied QI-value         = 16.25
 optimisation between [QCUT,QGAM] = [ 10.24, 20.48] = [ 29.35,117.42] Ry 
 Optimized for a Real-space Cutoff    1.38 Angstroem

   l    n(q)    QCUT    max X(q) W(low)/X(q) W(high)/X(q)  e(spline) 
   2      7    10.239     6.328    0.33E-04    0.68E-04    0.30E-07
   2      7    10.239     9.625    0.20E-03    0.23E-03    0.80E-07
   0      8    10.239     9.711    0.17E-04    0.17E-04    0.13E-07
   0      8    10.239    32.764    0.56E-04    0.14E-03    0.62E-07
   1      8    10.239     7.413    0.78E-04    0.28E-04    0.38E-07
   1      8    10.239    31.472    0.43E-03    0.30E-03    0.73E-07
 Optimization of the real space projectors (new method)

 maximal supplied QI-value         = 17.01
 optimisation between [QCUT,QGAM] = [ 10.20, 20.41] = [ 29.16,116.64] Ry 
 Optimized for a Real-space Cutoff    1.51 Angstroem

   l    n(q)    QCUT    max X(q) W(low)/X(q) W(high)/X(q)  e(spline) 
   1      9    10.205     4.550    0.11E-04    0.61E-05    0.27E-07
   1      9    10.205     5.234    0.14E-04    0.12E-03    0.13E-06
   2      8    10.205     3.960    0.41E-04    0.45E-04    0.45E-07
   2      8    10.205    29.565    0.45E-03    0.40E-03    0.42E-06
   0      9    10.205    23.582    0.19E-04    0.16E-05    0.90E-08
   0      9    10.205    39.747    0.62E-04    0.50E-04    0.87E-07
 Optimization of the real space projectors (new method)

 maximal supplied QI-value         = 24.76
 optimisation between [QCUT,QGAM] = [ 10.15, 20.30] = [ 28.85,115.39] Ry 
 Optimized for a Real-space Cutoff    1.30 Angstroem

   l    n(q)    QCUT    max X(q) W(low)/X(q) W(high)/X(q)  e(spline) 
   0      8    10.150     4.192    0.55E-04    0.58E-04    0.78E-07
   0      8    10.150     8.473    0.46E-03    0.68E-03    0.23E-06
   1      7    10.150     2.474    0.11E-03    0.93E-04    0.33E-07
   1      7    10.150     3.912    0.46E-03    0.50E-03    0.15E-06
 PAW_PBE Ga_d 06Sep2000                 :
 energy of atom  1       EATOM=-2149.0616
 kinetic energy error for atom=    0.0101 (will be added to EATOM!!)
 PAW_PBE Fe_pv 06Sep2000                :
 energy of atom  2       EATOM=-2456.8974
 kinetic energy error for atom=    0.0365 (will be added to EATOM!!)
 PAW_PBE O 08Apr2002                    :
 energy of atom  3       EATOM= -432.3788
 kinetic energy error for atom=    0.1156 (will be added to EATOM!!)
 
 
 POSCAR: Ga Fe  O                                
  positions in direct lattice
  velocities in cartesian coordinates
 exchange correlation table for  LEXCH =        8
   RHO(1)=    0.500       N(1)  =     2000
   RHO(2)=  100.500       N(2)  =     4000
 


--------------------------------------------------------------------------------------------------------


 ion  position               nearest neighbor table
   1  0.091  1.000  0.396-  99 1.82 108 1.83 140 1.83 106 1.85
   2  0.411  0.625  0.603-  85 1.82  72 1.83 157 1.83 121 1.87
   3  0.589  0.625  0.896-  86 1.83  71 1.83 158 1.83 136 1.86
   4  0.159  0.625  0.656-  80 1.93  78 1.93 149 1.94 121 2.01  75 2.07 154 2.08
   5  0.840  0.625  0.844-  77 1.93  79 1.94 150 1.94 136 2.00  76 2.07 153 2.08
   6  0.910  0.500  0.604-  90 1.82  78 1.83 118 1.83  76 1.86
   7  0.089  0.500  0.896-  68 1.82  77 1.83 117 1.83  75 1.86
   8  0.840  0.375  0.844- 117 1.93 119 1.94  79 1.94  65 2.00  76 2.08 116 2.08
   9  0.911  0.250  0.604- 131 1.83 118 1.83  97 1.83 116 1.86
  10  0.089  0.250  0.896- 132 1.82  96 1.84 117 1.84  93 1.86
  11  0.841  0.625  0.344-  89 1.93  90 1.94 138 1.94  81 2.01  88 2.07 141 2.08
  12  0.660  1.000  0.657- 114 1.92 102 1.93 155 1.94  95 2.01 160 2.07 133 2.07
  13  0.160  0.625  0.156-  68 1.93  70 1.94 137 1.94  82 2.01  87 2.04 142 2.08
  14  0.090  0.250  0.395- 120 1.83 127 1.84 108 1.84 129 1.84
  15  0.913  0.250  0.104- 130 1.83 109 1.83 119 1.83 128 1.86
  16  0.841  0.375  0.344- 129 1.92  90 1.94 131 1.94  92 2.00  88 2.07 128 2.08
  17  0.161  0.375  0.157- 130 1.95 132 1.95  68 1.95 122 1.97 127 2.04  87 2.08
  18  0.592  0.376  0.397- 123 1.80 135 1.83  83 1.83  92 1.86
  19  0.410  0.376  0.104-  91 1.83 122 1.83  69 1.83 124 1.84
  20  0.660  0.250  0.156- 124 1.94 126 1.94 105 1.94 128 2.02  92 2.08 100 2.08
  21  0.411  0.625  0.104-  69 1.83  73 1.83 145 1.83  82 1.86
  22  0.341  0.499  0.344- 125 1.88  83 1.95  85 1.95 122 2.02  87 2.03  82 2.09
  23  0.590  0.625  0.396-  83 1.82  74 1.83 146 1.83  81 1.86
  24  0.341  0.000  0.844- 113 1.93 115 1.93 156 1.94  94 2.01 134 2.06 159 2.07
  25  0.410  0.124  0.602- 104 1.79 114 1.84  84 1.84 134 1.87
  26  0.589  0.125  0.896- 105 1.83 115 1.83  67 1.83 133 1.86
  27  0.911  1.000  0.104- 109 1.82 139 1.82  98 1.83 107 1.86
  28  0.841  0.125  0.344- 108 1.92 110 1.94 131 1.94 100 2.00 107 2.07 128 2.08
  29  0.161  0.125  0.157- 109 1.95 132 1.95 111 1.95 101 1.97 127 2.04 106 2.08
  30  0.592  0.124  0.397- 123 1.80 102 1.83 103 1.83 100 1.86
  31  0.411  0.124  0.104- 113 1.83 101 1.83 112 1.83 124 1.84
  32  0.341  0.001  0.344- 104 1.88 103 1.95 144 1.95 101 2.02 106 2.03 147 2.09
  33  0.660  0.000  0.156- 112 1.92 105 1.94 143 1.94 107 2.01 100 2.05 148 2.07
  34  0.091  0.500  0.396-  80 1.82 129 1.83  89 1.83  87 1.85
  35  0.660  0.500  0.156-  69 1.92  86 1.94 126 1.94  88 2.01  92 2.05  81 2.07
  36  0.659  0.250  0.655-  84 1.93 102 1.94 135 1.94 116 2.02 133 2.09  65 2.09
  37  0.911  0.500  0.104- 130 1.82  70 1.82  79 1.83  88 1.86
  38  0.410  0.376  0.602- 125 1.79  72 1.84  84 1.84  66 1.87
  39  0.589  0.375  0.896- 126 1.83  71 1.83  67 1.83  65 1.86
  40  0.160  0.375  0.655-  80 1.93 120 1.93 118 1.94  66 2.01  93 2.08  75 2.08
  41  0.660  0.500  0.657-  72 1.92 135 1.93  74 1.94  76 2.01 136 2.07  65 2.07
  42  0.341  0.500  0.844-  91 1.93  71 1.93  73 1.94  75 2.01  66 2.06 121 2.07
  43  0.089  1.000  0.896- 111 1.82 152 1.83  96 1.83  94 1.86
  44  0.910  1.000  0.604- 110 1.82 151 1.83  97 1.83  95 1.86
  45  0.840  0.125  0.844-  96 1.93 119 1.94  98 1.94 133 2.00  95 2.08 116 2.08
  46  0.160  0.125  0.655-  99 1.93 120 1.93  97 1.94 134 2.01  93 2.08  94 2.08
  47  0.340  0.250  0.844-  67 1.93 113 1.94  91 1.94  93 2.01  66 2.08 134 2.08
  48  0.089  0.750  0.396- 149 1.83 140 1.83  89 1.83 142 1.86
  49  0.911  0.750  0.104- 150 1.83 139 1.83  70 1.83 141 1.86
  50  0.841  0.875  0.344- 140 1.93 110 1.94 138 1.94 148 2.01 107 2.07 141 2.08
  51  0.160  0.876  0.156- 111 1.93 139 1.94 137 1.94 147 2.01 106 2.04 142 2.08
  52  0.590  0.875  0.396- 103 1.82 155 1.83 146 1.83 148 1.86
  53  0.411  0.875  0.104- 156 1.83 112 1.83 145 1.83 147 1.86
  54  0.341  0.750  0.344- 144 1.93  85 1.93 146 1.94 142 2.02 147 2.06  82 2.06
  55  0.660  0.750  0.156- 145 1.93  86 1.94 143 1.94 141 2.01  81 2.08 148 2.08
  56  0.089  0.750  0.897- 137 1.82  77 1.83 152 1.83 154 1.86
  57  0.911  0.750  0.604- 138 1.83 151 1.83  78 1.83 153 1.86
  58  0.840  0.875  0.844- 152 1.93  98 1.94 150 1.94 160 2.00  95 2.07 153 2.08
  59  0.159  0.875  0.656-  99 1.93 151 1.93 149 1.94 159 2.01  94 2.07 154 2.08
  60  0.589  0.875  0.896- 143 1.83 115 1.83 158 1.83 160 1.86
  61  0.411  0.875  0.603- 144 1.82 114 1.83 157 1.83 159 1.87
  62  0.340  0.750  0.845- 158 1.93 156 1.94  73 1.94 154 2.01 159 2.08 121 2.08
  63  0.660  0.750  0.656- 157 1.93 155 1.94  74 1.94 153 2.01 136 2.08 160 2.08
  64  0.343  0.250  0.343- 123 2.01 125 2.07 104 2.07 127 2.11 122 2.19 101 2.19
  65  0.673  0.375  0.781-  39 1.86   8 2.00  41 2.07  36 2.09
  66  0.328  0.376  0.720-  38 1.87  40 2.01  42 2.06  47 2.08
  67  0.503  0.250  0.872-  39 1.83  26 1.83  47 1.93
  68  0.162  0.501  0.052-   7 1.82  13 1.93  17 1.95
  69  0.498  0.501  0.127-  21 1.83  19 1.83  35 1.92
  70  0.997  0.625  0.127-  37 1.82  49 1.83  13 1.94
  71  0.503  0.500  0.873-  39 1.83   3 1.83  42 1.93
  72  0.498  0.500  0.630-   2 1.83  38 1.84  41 1.92
  73  0.336  0.624  0.947-  21 1.83  42 1.94  62 1.94
  74  0.665  0.625  0.553-  23 1.83  41 1.94  63 1.94
  75  0.172  0.500  0.781-   7 1.86  42 2.01   4 2.07  40 2.08
  76  0.828  0.500  0.720-   6 1.86  41 2.01   5 2.07   8 2.08
  77  0.003  0.625  0.872-   7 1.83  56 1.83   5 1.93
  78  0.997  0.624  0.628-   6 1.83  57 1.83   4 1.93
  79  0.836  0.500  0.947-  37 1.83   5 1.94   8 1.94
  80  0.163  0.501  0.554-  34 1.82   4 1.93  40 1.93
  81  0.673  0.625  0.281-  23 1.86  11 2.01  35 2.07  55 2.08
  82  0.328  0.626  0.219-  21 1.86  13 2.01  54 2.06  22 2.09
  83  0.505  0.500  0.372-  23 1.82  18 1.83  22 1.95
  84  0.497  0.250  0.627-  25 1.84  38 1.84  36 1.93
  85  0.337  0.626  0.447-   2 1.82  54 1.93  22 1.95
  86  0.665  0.625  0.053-   3 1.83  35 1.94  55 1.94
  87  0.171  0.502  0.280-  34 1.85  22 2.03  13 2.04  17 2.08
  88  0.828  0.501  0.219-  37 1.86  35 2.01  11 2.07  16 2.07
  89  0.003  0.624  0.373-  34 1.83  48 1.83  11 1.93
  90  0.836  0.500  0.447-   6 1.82  11 1.94  16 1.94
  91  0.336  0.376  0.947-  19 1.83  42 1.93  47 1.94
  92  0.674  0.377  0.280-  18 1.86  16 2.00  35 2.05  20 2.08
  93  0.172  0.250  0.781-  10 1.86  47 2.01  40 2.08  46 2.08
  94  0.172  1.000  0.781-  43 1.86  24 2.01  59 2.07  46 2.08
  95  0.828  1.000  0.720-  44 1.86  12 2.01  58 2.07  45 2.08
  96  0.003  0.125  0.872-  43 1.83  10 1.84  45 1.93
  97  0.997  0.124  0.628-  44 1.83   9 1.83  46 1.94
  98  0.836  1.000  0.947-  27 1.83  58 1.94  45 1.94
  99  0.163  0.999  0.554-   1 1.82  59 1.93  46 1.93
 100  0.674  0.124  0.280-  30 1.86  28 2.00  33 2.05  20 2.08
 101  0.326  0.115  0.214-  31 1.83  29 1.97  32 2.02  64 2.19
 102  0.666  0.123  0.554-  30 1.83  12 1.93  36 1.94
 103  0.505  0.000  0.372-  52 1.82  30 1.83  32 1.95
 104  0.332  0.116  0.450-  25 1.79  32 1.88  64 2.07
 105  0.664  0.125  0.053-  26 1.83  33 1.94  20 1.94
 106  0.171  0.998  0.280-   1 1.85  32 2.03  51 2.04  29 2.08
 107  0.828  1.000  0.219-  27 1.86  33 2.01  50 2.07  28 2.07
 108  0.003  0.124  0.373-   1 1.83  14 1.84  28 1.92
 109  0.997  0.124  0.127-  27 1.82  15 1.83  29 1.95
 110  0.836  0.000  0.447-  44 1.82  50 1.94  28 1.94
 111  0.162  0.999  0.052-  43 1.82  51 1.93  29 1.95
 112  0.498  1.000  0.127-  53 1.83  31 1.83  33 1.92
 113  0.336  0.124  0.947-  31 1.83  24 1.93  47 1.94
 114  0.498  1.000  0.630-  61 1.83  25 1.84  12 1.92
 115  0.503  0.000  0.873-  26 1.83  60 1.83  24 1.93
 116  0.827  0.250  0.719-   9 1.86  36 2.02  45 2.08   8 2.08
 117  0.003  0.375  0.872-   7 1.83  10 1.84   8 1.93
 118  0.997  0.376  0.628-   6 1.83   9 1.83  40 1.94
 119  0.837  0.250  0.947-  15 1.83   8 1.94  45 1.94
 120  0.163  0.250  0.553-  14 1.83  40 1.93  46 1.93
 121  0.328  0.625  0.719-   2 1.87   4 2.01  42 2.07  62 2.08
 122  0.326  0.385  0.214-  19 1.83  17 1.97  22 2.02  64 2.19
 123  0.512  0.250  0.374-  18 1.80  30 1.80  64 2.01
 124  0.497  0.250  0.127-  19 1.84  31 1.84  20 1.94
 125  0.332  0.384  0.450-  38 1.79  22 1.88  64 2.07
 126  0.664  0.375  0.053-  39 1.83  35 1.94  20 1.94
 127  0.166  0.250  0.275-  14 1.84  17 2.04  29 2.04  64 2.11
 128  0.828  0.250  0.219-  15 1.86  20 2.02  28 2.08  16 2.08
 129  0.003  0.376  0.373-  34 1.83  14 1.84  16 1.92
 130  0.997  0.376  0.127-  37 1.82  15 1.83  17 1.95
 131  0.836  0.250  0.447-   9 1.83  16 1.94  28 1.94
 132  0.165  0.250  0.052-  10 1.82  17 1.95  29 1.95
 133  0.673  0.125  0.781-  26 1.86  45 2.00  12 2.07  36 2.09
 134  0.328  0.125  0.720-  25 1.87  46 2.01  24 2.06  47 2.08
 135  0.666  0.377  0.554-  18 1.83  41 1.93  36 1.94
 136  0.673  0.625  0.781-   3 1.86   5 2.00  41 2.07  63 2.08
 137  0.163  0.750  0.053-  56 1.82  51 1.94  13 1.94
 138  0.836  0.750  0.447-  57 1.83  50 1.94  11 1.94
 139  0.997  0.875  0.127-  27 1.82  49 1.83  51 1.94
 140  0.003  0.876  0.373-   1 1.83  48 1.83  50 1.93
 141  0.828  0.750  0.219-  49 1.86  55 2.01  11 2.08  50 2.08
 142  0.172  0.750  0.281-  48 1.86  54 2.02  51 2.08  13 2.08
 143  0.665  0.876  0.053-  60 1.83  33 1.94  55 1.94
 144  0.336  0.874  0.447-  61 1.82  54 1.93  32 1.95
 145  0.497  0.750  0.127-  53 1.83  21 1.83  55 1.93
 146  0.504  0.750  0.372-  52 1.83  23 1.83  54 1.94
 147  0.328  0.874  0.219-  53 1.86  51 2.01  54 2.06  32 2.09
 148  0.673  0.875  0.281-  52 1.86  50 2.01  33 2.07  55 2.08
 149  0.163  0.750  0.553-  48 1.83  59 1.94   4 1.94
 150  0.836  0.750  0.947-  49 1.83  58 1.94   5 1.94
 151  0.997  0.876  0.628-  44 1.83  57 1.83  59 1.93
 152  0.003  0.875  0.872-  43 1.83  56 1.83  58 1.93
 153  0.827  0.750  0.719-  57 1.86  63 2.01   5 2.08  58 2.08
 154  0.172  0.750  0.781-  56 1.86  62 2.01  59 2.08   4 2.08
 155  0.665  0.875  0.553-  52 1.83  12 1.94  63 1.94
 156  0.336  0.876  0.947-  53 1.83  24 1.94  62 1.94
 157  0.497  0.750  0.628-  61 1.83   2 1.83  63 1.93
 158  0.503  0.750  0.873-  60 1.83   3 1.83  62 1.93
 159  0.328  0.875  0.719-  61 1.87  59 2.01  24 2.07  62 2.08
 160  0.673  0.875  0.781-  60 1.86  58 2.00  12 2.07  63 2.08
 
  LATTYP: Found a simple monoclinic cell.
 ALAT       =    14.6889751464
 B/A-ratio  =     0.8259161174
 C/A-ratio  =     1.5972413798
 COS(beta)  =    -0.9171837574
  
  Lattice vectors:
  
 A1 = ( -11.8609006218,   0.0000000000,  -8.6651617002)
 A2 = (   0.0000000000, -12.1318613217,   0.0000000000)
 A3 = (  11.8609006218,   0.0000000000,  20.2429474736)


Analysis of symmetry for initial positions (statically):
=====================================================================
 Subroutine PRICEL returns:
 Original cell was already a primitive cell.
 

 Routine SETGRP: Setting up the symmetry group for a 
 simple monoclinic supercell.


 Subroutine GETGRP returns: Found  1 space group operations
 (whereof  1 operations were pure point group operations)
 out of a pool of  4 trial point group operations.


The static configuration has the point symmetry C_1 .


Analysis of symmetry for dynamics (positions and initial velocities):
=====================================================================
 Subroutine PRICEL returns:
 Original cell was already a primitive cell.
 

 Routine SETGRP: Setting up the symmetry group for a 
 simple monoclinic supercell.


 Subroutine GETGRP returns: Found  1 space group operations
 (whereof  1 operations were pure point group operations)
 out of a pool of  4 trial point group operations.


The dynamic configuration has the point symmetry C_1 .


Analysis of constrained symmetry for selective dynamics:
=====================================================================
 Subroutine PRICEL returns:
 Original cell was already a primitive cell.
 

 Routine SETGRP: Setting up the symmetry group for a 
 simple monoclinic supercell.


 Subroutine GETGRP returns: Found  1 space group operations
 (whereof  1 operations were pure point group operations)
 out of a pool of  4 trial point group operations.


The constrained configuration has the point symmetry C_1 .


Analysis of structural, dynamic, and magnetic symmetry:
=====================================================================
 Subroutine PRICEL returns:
 Original cell was already a primitive cell.
 

 Routine SETGRP: Setting up the symmetry group for a 
 simple monoclinic supercell.


 Subroutine GETGRP returns: Found  1 space group operations
 (whereof  1 operations were pure point group operations)
 out of a pool of  4 trial point group operations.


The magnetic configuration has the point symmetry C_1 .


 Subroutine INISYM returns: Found  1 space group operations
 (whereof  1 operations are pure point group operations),
 and found     1 'primitive' translations

 
 
 KPOINTS: KPOINTS created by Atomic Simulation Env
  k-points in reciprocal lattice
Space group operators:
 irot       det(A)        alpha          n_x          n_y          n_z        tau_x        tau_y        tau_z
    1     1.000000     0.000000     1.000000     0.000000     0.000000     0.000000     0.000000     0.000000

 ----------------------------------------------------------------------------- 
|                                                                             |
|           W    W    AA    RRRRR   N    N  II  N    N   GGGG   !!!           |
|           W    W   A  A   R    R  NN   N  II  NN   N  G    G  !!!           |
|           W    W  A    A  R    R  N N  N  II  N N  N  G       !!!           |
|           W WW W  AAAAAA  RRRRR   N  N N  II  N  N N  G  GGG   !            |
|           WW  WW  A    A  R   R   N   NN  II  N   NN  G    G                |
|           W    W  A    A  R    R  N    N  II  N    N   GGGG   !!!           |
|                                                                             |
|      Your generating k-point grid is not commensurate to the symmetry       |
|      of the lattice.  This can cause   slow convergence with respect        |
|      to k-points for HF type calculations                                   |
|      suggested SOLUTIONS:                                                   |
|       ) if not already the case, use automatic k-point generation           |
|       ) shift your grid to Gamma (G) (e.g. required for hex or fcc lattice) |
|                                                                             |
 ----------------------------------------------------------------------------- 

 
 Subroutine IBZKPT_HF returns following result:
 ==============================================
 
 Found      2 k-points in 1st BZ
 the following      2 k-points will be used (e.g. in the exchange kernel)
 Following reciprocal coordinates:   # in IRBZ
  0.250000  0.250000  0.250000    0.50000000   1 t-inv F
 -0.250000 -0.250000 -0.250000    0.50000000   1 t-inv T


--------------------------------------------------------------------------------------------------------




 Dimension of arrays:
   k-points           NKPTS =      1   k-points in BZ     NKDIM =      2   number of bands    NBANDS=    864
   number of dos      NEDOS =    301   number of ions     NIONS =    160
   non local maximal  LDIM  =      6   non local SUM 2l+1 LMDIM =     18
   total plane-waves  NPLWV = 216000
   max r-space proj   IRMAX =   1914   max aug-charges    IRDMAX=   5112
   dimension x,y,z NGX =    60 NGY =   60 NGZ =   60
   dimension x,y,z NGXF=   120 NGYF=  120 NGZF=  120
   support grid    NGXF=   120 NGYF=  120 NGZF=  120
   ions per type =              63   1  96
   NGX,Y,Z   is equivalent  to a cutoff of   8.17,  8.22,  8.62 a.u.
   NGXF,Y,Z  is equivalent  to a cutoff of  16.33, 16.44, 17.23 a.u.

 SYSTEM =  unknown system                          
 POSCAR =  Ga Fe  O                                

 Startparameter for this run:
   NWRITE =      2    write-flag & timer
   PREC   = normal    normal or accurate (medium, high low for compatibility)
   ISTART =      1    job   : 0-new  1-cont  2-samecut
   ICHARG =      0    charge: 1-file 2-atom 10-const
   ISPIN  =      2    spin polarized calculation?
   LNONCOLLINEAR =      F non collinear calculations
   LSORBIT =      F    spin-orbit coupling
   INIWAV =      1    electr: 0-lowe 1-rand  2-diag
   LASPH  =      T    aspherical Exc in radial PAW
   METAGGA=      F    non-selfconsistent MetaGGA calc.

 Electronic Relaxation 1
   ENCUT  =  400.0 eV  29.40 Ry    5.42 a.u.  19.92 19.78 18.88*2*pi/ulx,y,z
   ENINI  =  400.0     initial cutoff
   ENAUG  =  605.4 eV  augmentation charge cutoff
   NELM   =     40;   NELMIN=  2; NELMDL=  0     # of ELM steps 
   EDIFF  = 0.1E-03   stopping-criterion for ELM
   LREAL  =      T    real-space projection
   NLSPLINE    = F    spline interpolate recip. space projectors
   LCOMPAT=      F    compatible to vasp.4.4
   GGA_COMPAT  = T    GGA compatible to vasp.4.4-vasp.4.6
   LMAXPAW     = -100 max onsite density
   LMAXMIX     =    2 max onsite mixed and CHGCAR
   VOSKOWN=      0    Vosko Wilk Nusair interpolation
   ROPT   =   -0.00050  -0.00050  -0.00050
 Ionic relaxation
   EDIFFG = 0.1E-02   stopping-criterion for IOM
   NSW    =     45    number of steps for IOM
   NBLOCK =      1;   KBLOCK =     45    inner block; outer block 
   IBRION =      2    ionic relax: 0-MD 1-quasi-New 2-CG
   NFREE  =      1    steps in history (QN), initial steepest desc. (CG)
   ISIF   =      0    stress and relaxation
   IWAVPR =     11    prediction:  0-non 1-charg 2-wave 3-comb
   ISYM   =      3    0-nonsym 1-usesym 2-fastsym
   LCORR  =      T    Harris-Foulkes like correction to forces

   POTIM  = 0.3500    time-step for ionic-motion
   TEIN   =    0.0    initial temperature
   TEBEG  =    0.0;   TEEND  =   0.0 temperature during run
   SMASS  =  -3.00    Nose mass-parameter (am)
   estimated Nose-frequenzy (Omega)   =  0.10E-29 period in steps =****** mass=  -0.341E-26a.u.
   SCALEE = 1.0000    scale energy and forces
   NPACO  =    256;   APACO  = 16.0  distance and # of slots for P.C.
   PSTRESS=    0.0 pullay stress

  Mass of Ions in am
   POMASS =  69.72 55.85 16.00
  Ionic Valenz
   ZVAL   =  13.00 14.00  6.00
  Atomic Wigner-Seitz radii
   RWIGS  =  -1.00 -1.00 -1.00
  virtual crystal weights 
   VCA    =   1.00  1.00  1.00
   NELECT =    1410.0000    total number of electrons
   NUPDOWN=       4.0000    fix difference up-down

 DOS related values:
   EMIN   =  10.00;   EMAX   =-10.00  energy-range for DOS
   EFERMI =   0.00
   ISMEAR =     0;   SIGMA  =   0.05  broadening in eV -4-tet -1-fermi 0-gaus

 Electronic relaxation 2 (details)
   IALGO  =     58    algorithm
   LDIAG  =      T    sub-space diagonalisation (order eigenvalues)
   LSUBROT=      F    optimize rotation matrix (better conditioning)
   TURBO    =      0    0=normal 1=particle mesh
   IRESTART =      0    0=no restart 2=restart with 2 vectors
   NREBOOT  =      0    no. of reboots
   NMIN     =      0    reboot dimension
   EREF     =   0.00    reference energy to select bands
   IMIX   =      4    mixing-type and parameters
     AMIX     =   0.40;   BMIX     =  1.00
     AMIX_MAG =   1.60;   BMIX_MAG =  1.00
     AMIN     =   0.10
     WC   =   100.;   INIMIX=   1;  MIXPRE=   1;  MAXMIX= -45

 Intra band minimization:
   WEIMIN = 0.0010     energy-eigenvalue tresh-hold
   EBREAK =  0.29E-07  absolut break condition
   DEPER  =   0.30     relativ break condition  

   TIME   =   0.40     timestep for ELM

  volume/ion in A,a.u.               =      10.41        70.27
  Fermi-wavevector in a.u.,A,eV,Ry     =   1.548547  2.926329 32.626732  2.397997
  Thomas-Fermi vector in A             =   2.653481
 
 Write flags
   LWAVE        =      T    write WAVECAR
   LDOWNSAMPLE  =      F    k-point downsampling of WAVECAR
   LCHARG       =      F    write CHGCAR
   LVTOT        =      F    write LOCPOT, total local potential
   LVHAR        =      T    write LOCPOT, Hartree potential only
   LELF         =      F    write electronic localiz. function (ELF)
   LORBIT       =     10    0 simple, 1 ext, 2 COOP (PROOUT), +10 PAW based schemes


 Dipole corrections
   LMONO  =      F    monopole corrections only (constant potential shift)
   LDIPOL =      F    correct potential (dipole corrections)
   IDIPOL =      0    1-x, 2-y, 3-z, 4-all directions 
   EPSILON=  1.0000000 bulk dielectric constant

 Exchange correlation treatment:
   GGA     =    --    GGA type
   LEXCH   =     8    internal setting for exchange type
   VOSKOWN=      0    Vosko Wilk Nusair interpolation
   EXXOEP  =     0    0=HF, 1=EXX-LHF (local Hartree Fock) 2=EXX OEP
   LHFCALC =     T    Hartree Fock is set to
   LSYMGRAD=     F    symmetrize gradient (conserves proper symmetry)
   PRECFOCK=fast      Normal, Fast or Accurate (Low or Medium for compatibility)
   LRHFCALC=     F    long range Hartree Fock
   LRSCOR  =     F    long range correlation only (use DFT for short range part)
   LTHOMAS =     F    Thomas Fermi screening in HF
   LMODELHF=     F    short range full HF, long range fraction AEXX
   ENCUT4O =  -1.0   cutoff for four orbital integrals eV
   LMAXFOCK=     4    L truncation for augmentation on plane wave grid
   LMAXFOCKAE=  -1    L truncation for all-electron charge restoration on plane wave grid
   NMAXFOCKAE=   1    number of basis functions for all-electron charge restoration
   LFOCKAEDFT=     F  apply the AE augmentation even for DFT
   NKREDX  =     1    reduce k-point grid by
   NKREDY  =     1    reduce k-point grid by
   NKREDZ  =     1    reduce k-point grid by
   SHIFTRED=     F    shift reduced grid of Gamma
   HFKIDENT=     F    idential grid for each k-point
   ODDONLY =     F    use only odd q-grid points
   EVENONLY=     F    use only even q-grid points
   HFALPHA =   -1.0000 decay constant for conv. correction
   MCALPHA =    0.0000 extent of test-charge in conv. correction in multipole expansion
   AEXX    =    0.3200 exact exchange contribution
   HFSCREEN=    0.2000 screening length (either q_TF or 0.3 A-1)
   HFSCREENC=   0.2000 screening length for correlation (either q_TF or 0.3 A-1)
   HFRCUT  =    0.0000 spherical cutoff for potential kernel
   ALDAX   =    0.6800 LDA exchange part
   AGGAX   =    0.6800 GGA exchange part
   ALDAC   =    1.0000 LDA correlation
   AGGAC   =    1.0000 GGA correlation
   ENCUTFOCK=  -1.0 apply spherical cutoff to Coloumb kernel
   NBANDSGWLOW=     1    first orbital included in HF term
   NBLOCK_FOCK=    64    blocking factor in FOCK_ACC
 Linear response parameters
   LEPSILON=     F    determine dielectric tensor
   LRPA    =     F    only Hartree local field effects (RPA)
   LNABLA  =     F    use nabla operator in PAW spheres
   LVEL    =     F    velocity operator in full k-point grid
   LINTERFAST=   F  fast interpolation
   KINTER  =     0    interpolate to denser k-point grid
   CSHIFT  =0.1000    complex shift for real part using Kramers Kronig
   OMEGAMAX=  -1.0    maximum frequency
   DEG_THRESHOLD= 0.2000000E-02 threshold for treating states as degnerate
   RTIME   =   -0.100 relaxation time in fs
  (WPLASMAI=    0.000 imaginary part of plasma frequency in eV, 0.658/RTIME)
   DFIELD  = 0.0000000 0.0000000 0.0000000 field for delta impulse in time
 
 Orbital magnetization related:
   ORBITALMAG=     F  switch on orbital magnetization
   LCHIMAG   =     F  perturbation theory with respect to B field
   DQ        =  0.001000  dq finite difference perturbation B field
   LLRAUG    =     F  two centre corrections for induced B field



--------------------------------------------------------------------------------------------------------


 conjugate gradient relaxation of ions
   using selective dynamics as specified on POSCAR
 charge density and potential will be updated during run
 spin polarized calculation
 Conjugate gradient for all bands (Freysoldt, et al. PRB 79, 241103 (2009))
 preconditioned conjugated gradient                                        
 perform sub-space diagonalisation
    before iterative eigenvector-optimisation
 modified Broyden-mixing scheme, WC =      100.0
 initial mixing is a Kerker type mixing with AMIX =  0.4000 and BMIX =      1.0000
 Hartree-type preconditioning will be used
 using additional bands          159
 real space projection scheme for non local part
 use partial core corrections
 no Harris-corrections to forces 
 use gradient corrections 
 use of overlap-Matrix (Vanderbilt PP)
 Gauss-broadening in eV      SIGMA  =   0.05


--------------------------------------------------------------------------------------------------------


  energy-cutoff  :      400.00
  volume of cell :     1665.98
      direct lattice vectors                 reciprocal lattice vectors
    11.860900622  0.000000000 -2.912624073     0.084310630  0.000000000  0.000000000
     0.000000000 12.131861322  0.000000000     0.000000000  0.082427583  0.000000000
     0.000000000  0.000000000 11.577785773     0.021210029  0.000000000  0.086372301

  length of vectors
    12.213285494 12.131861322 11.577785773     0.084310630  0.082427583  0.088938404


 
 old parameters found on file WAVECAR:
  energy-cutoff  :      400.00
  volume of cell :     1665.98
      direct lattice vectors                 reciprocal lattice vectors
    11.860900622  0.000000000 -2.912624073     0.084310630  0.000000000  0.000000000
     0.000000000 12.131861322  0.000000000     0.000000000  0.082427583  0.000000000
     0.000000000  0.000000000 11.577785773     0.021210029  0.000000000  0.086372301

  length of vectors

 
 k-points in units of 2pi/SCALE and weight: KPOINTS created by Atomic Simulation Env
   0.02638016  0.02060690  0.02159308       1.000
 
 k-points in reciprocal lattice and weights: KPOINTS created by Atomic Simulation Env
   0.25000000  0.25000000  0.25000000       1.000
 
 position of ions in fractional coordinates (direct lattice) 
   0.09054895  0.99998403  0.39629175
   0.41085521  0.62477884  0.60330317
   0.58941254  0.62496066  0.89640359
   0.15933722  0.62494259  0.65620091
   0.84046704  0.62492585  0.84426254
   0.91009367  0.50004222  0.60381875
   0.08924599  0.50013861  0.89605993
   0.84045580  0.37501873  0.84438097
   0.91119287  0.25000392  0.60396153
   0.08940820  0.25000000  0.89629914
   0.84084668  0.62485291  0.34419210
   0.65955071  0.99976530  0.65672939
   0.15959643  0.62463251  0.15639478
   0.09017638  0.25005314  0.39473850
   0.91261173  0.25005420  0.10434479
   0.84147647  0.37523377  0.34392673
   0.16088735  0.37495605  0.15662740
   0.59236592  0.37585916  0.39697738
   0.41049059  0.37604450  0.10388468
   0.65954043  0.25007188  0.15578577
   0.41093163  0.62485365  0.10435475
   0.34088529  0.49930972  0.34402726
   0.58999630  0.62503646  0.39637102
   0.34051433  0.00026871  0.84370281
   0.40985273  0.12417569  0.60224319
   0.58918716  0.12492985  0.89620785
   0.91066174  0.99980766  0.10365122
   0.84144975  0.12482210  0.34391138
   0.16089687  0.12524462  0.15662582
   0.59231533  0.12422605  0.39697213
   0.41051537  0.12412425  0.10390694
   0.34085242  0.00085184  0.34401332
   0.66009319  0.00006700  0.15618954
   0.09058921  0.50011059  0.39629375
   0.66012225  0.50004882  0.15617504
   0.65892206  0.25002718  0.65481021
   0.91066712  0.50029807  0.10363301
   0.40982091  0.37600669  0.60220544
   0.58925426  0.37519293  0.89620205
   0.15980980  0.37520287  0.65542945
   0.65959143  0.50029517  0.65672361
   0.34054362  0.49983346  0.84369893
   0.08929790  0.99995563  0.89610578
   0.91008482  0.99998912  0.60382969
   0.84043230  0.12504551  0.84437237
   0.15982155  0.12487760  0.65540957
   0.34041671  0.25006238  0.84431947
   0.08878496  0.75006376  0.39609992
   0.91093389  0.75008261  0.10389742
   0.84081077  0.87523796  0.34419055
   0.15959751  0.87554714  0.15642391
   0.58998570  0.87506519  0.39638757
   0.41086389  0.87530475  0.10432360
   0.34076297  0.75007492  0.34388831
   0.65988563  0.75006170  0.15572715
   0.08868763  0.75006371  0.89666765
   0.91091789  0.75002940  0.60400608
   0.84044245  0.87519687  0.84427522
   0.15934904  0.87514575  0.65619949
   0.58942420  0.87515841  0.89642878
   0.41077100  0.87540000  0.60323266
   0.34046831  0.75005943  0.84466729
   0.65954726  0.75004307  0.65552634
   0.34290018  0.25008702  0.34311689
   0.67271285  0.37534277  0.78134140
   0.32768391  0.37556220  0.71957274
   0.50300151  0.25008470  0.87237410
   0.16241035  0.50089971  0.05220810
   0.49830548  0.50051726  0.12690198
   0.99677497  0.62487008  0.12744949
   0.50303956  0.50009904  0.87260477
   0.49819439  0.50045775  0.62993130
   0.33633584  0.62440700  0.94721580
   0.66468141  0.62463422  0.55325364
   0.17222252  0.50028569  0.78074853
   0.82787542  0.50032184  0.71986638
   0.00256272  0.62467198  0.87176217
   0.99681223  0.62449219  0.62813280
   0.83564200  0.50013174  0.94703761
   0.16264641  0.50060885  0.55357249
   0.67304074  0.62494161  0.28082587
   0.32787549  0.62634169  0.21931497
   0.50453213  0.49999507  0.37247263
   0.49655446  0.25009747  0.62740477
   0.33650672  0.62582078  0.44681596
   0.66480372  0.62460918  0.05284410
   0.17081092  0.50203751  0.27969631
   0.82833686  0.50052034  0.21940220
   0.00292426  0.62441580  0.37286930
   0.83562445  0.50004686  0.44722490
   0.33643537  0.37573023  0.94664064
   0.67423953  0.37650481  0.28009185
   0.17229722  0.25005012  0.78063523
   0.17223091  0.99979883  0.78075858
   0.82785028  0.99972571  0.71986970
   0.00267577  0.12463978  0.87169722
   0.99705368  0.12443415  0.62808168
   0.83560396  0.99997935  0.94705073
   0.16264218  0.99945594  0.55355900
   0.67420098  0.12358343  0.28009927
   0.32563956  0.11493924  0.21427517
   0.66590746  0.12344620  0.55432442
   0.50450406  0.00006485  0.37247741
   0.33202485  0.11590100  0.45027711
   0.66437069  0.12461205  0.05272037
   0.17077820  0.99814065  0.27970592
   0.82833452  0.99954986  0.21940812
   0.00322934  0.12432919  0.37302630
   0.99711266  0.12398997  0.12656805
   0.83563034  0.00003597  0.44725314
   0.16246722  0.99922997  0.05220497
   0.49826965  0.99961681  0.12689879
   0.33643328  0.12440440  0.94664152
   0.49817112  0.99966587  0.62991602
   0.50300843  0.00000582  0.87262174
   0.82748858  0.24997508  0.71914812
   0.00267741  0.37538901  0.87166767
   0.99702300  0.37558080  0.62809192
   0.83673880  0.25004924  0.94741972
   0.16260912  0.25005337  0.55276448
   0.32763075  0.62472696  0.71913712
   0.32566045  0.38519811  0.21428418
   0.51216205  0.25007154  0.37365479
   0.49670187  0.25010146  0.12723486
   0.33201560  0.38423265  0.45024532
   0.66444146  0.37549552  0.05271692
   0.16619058  0.25016034  0.27544314
   0.82833294  0.25000318  0.21900888
   0.00323864  0.37579474  0.37305242
   0.99706554  0.37614101  0.12655783
   0.83626893  0.25004368  0.44713389
   0.16479980  0.25011127  0.05192686
   0.67265886  0.12475035  0.78134741
   0.32767834  0.12450637  0.71957889
   0.66597141  0.37659602  0.55430878
   0.67269880  0.62492255  0.78124851
   0.16332910  0.75010256  0.05317179
   0.83633616  0.75005039  0.44724499
   0.99674899  0.87526550  0.12743058
   0.00289498  0.87567747  0.37289662
   0.82780231  0.75003740  0.21924978
   0.17175103  0.75009947  0.28079924
   0.66483307  0.87551405  0.05285269
   0.33645008  0.87435115  0.44676263
   0.49747733  0.75011374  0.12720204
   0.50394847  0.75005333  0.37237187
   0.32786656  0.87379711  0.21932956
   0.67302590  0.87519667  0.28083134
   0.16301174  0.75004613  0.55325734
   0.83620670  0.75008223  0.94706174
   0.99681303  0.87554882  0.62817748
   0.00252537  0.87543857  0.87178122
   0.82745448  0.75002734  0.71916225
   0.17239122  0.75006122  0.78137727
   0.66470689  0.87543690  0.55325959
   0.33629387  0.87570838  0.94720057
   0.49733810  0.75012489  0.62824852
   0.50301991  0.75008665  0.87257077
   0.32761714  0.87534481  0.71911696
   0.67269608  0.87520797  0.78125543
 
 position of ions in cartesian coordinates  (Angst):
   1.07399213 12.13166752  4.32444593
   4.87311279  7.57973028  5.78824806
   6.99096352  7.58193607  8.66163163
   1.88988291  7.58171683  7.13326414
   9.96869606  7.58151369  7.32672632
  10.79453057  6.06644289  4.34012339
   1.05853781  6.06761224 10.11444993
   9.96856274  4.54967525  7.32813020
  10.80756808  3.03301291  4.33857488
   1.06046175  3.03296533 10.11674701
   9.97319892  7.58062887  1.53591210
   7.82286546 12.12901392  5.68244892
   1.89295742  7.57795501  1.34586080
   1.06957305  3.03361007  4.30754785
  10.82439702  3.03362282 -1.45001326
   9.98066875  4.55228407  1.53100534
   1.90826885  4.54891481  1.34479410
   7.02599335  4.55987116  2.87077982
   4.86878813  4.56211967  0.00714979
   7.82274351  3.03383735 -0.11733902
   4.87401924  7.58063786  0.01130758
   4.04320652  6.05755625  2.99020322
   6.99788748  7.58285571  2.87066132
   4.03880664  0.00326000  8.77642019
   4.86122253  1.50648224  5.77889572
   6.98829041  1.51563161  8.66002175
  10.80126835 12.12952794 -1.45236372
   9.98035192  1.51432443  1.53090545
   1.90838176  1.51945030  1.34474810
   7.02539332  1.50709320  2.87086632
   4.86908203  1.50585822  0.00733531
   4.04281665  0.01033443  2.99013752
   7.82929969  0.00081287 -0.11427432
   1.07446963  6.06727229  4.32435179
   7.82964444  6.06652299 -0.11452686
   7.81540904  3.03329513  5.66206013
  10.80133216  6.06954676 -1.45259022
   4.86084508  4.56166096  5.77855129
   6.98908624  4.55178856  8.65975923
   1.89548820  4.55190914  7.12295584
   7.82334840  6.06951167  5.68226335
   4.03915408  6.06391026  8.77628997
   1.05915348 12.13132309 10.11482960
  10.79442559 12.13172929  4.34027590
   9.96828399  1.51703482  7.32809907
   1.89562754  1.51499776  7.12269154
   4.03764874  3.03372208  8.78384407
   1.05306962  9.09966954  4.32736276
  10.80449636  9.09989824 -1.45030587
   9.97277295 10.61826557  1.53599880
   1.89297026 10.62201651  1.34619494
   6.99776175 10.61616947  2.87088381
   4.87321576 10.61907585  0.01114425
   4.04175573  9.09980486  2.98895080
   7.82683792  9.09964452 -0.11902322
   1.05191520  9.09966892 10.12311221
  10.80430658  9.09925271  4.33989165
   9.96840441 10.61776710  7.32694475
   1.89002316 10.61714686  7.13321324
   6.99110192 10.61730051  8.66188926
   4.87211404 10.62023139  5.78767705
   4.03826074  9.09961698  8.78772080
   7.82282445  9.09941856  5.66853032
   4.06710501  3.03402110  2.97379449
   7.97898025  4.55360640  7.08684370
   3.88662633  4.55626855  7.37663895
   5.96605091  3.03399290  8.63510619
   1.92633303  6.07684586  0.13141391
   5.91035176  6.07220601  0.01786745
  11.82264881  7.58083720 -1.42764783
   5.96650221  6.06713221  8.63766594
   5.90903413  6.07148397  5.84215671
   3.98924597  7.57521909  9.98704173
   7.88372016  7.57797577  4.46948499
   2.04271415  6.06939656  8.53771979
   9.81934812  6.06983517  5.92316889
   0.03039614  7.57843385 10.08561143
  11.82309075  7.57625267  4.36904776
   9.91146669  6.06752889  8.53068762
   1.92913288  6.07331720  5.93541583
   7.98286931  7.58170499  1.29102715
   3.88889863  7.59869052  1.58420373
   5.98420551  6.06587091  2.84289591
   5.88958308  3.03414786  5.81768158
   3.99127282  7.59237096  4.19302192
   7.88517086  7.57767195 -1.32450564
   2.02597133  6.09064940  2.74075595
   9.82482124  6.07224335  0.12755775
   0.03468437  7.57532587  4.30848364
   9.91125855  6.06649911  2.74401415
   3.99042647  4.55830710  9.98009279
   7.99708808  4.56770412  1.27903710
   2.04360026  3.03357342  8.53619041
   2.04281373 12.12942079  8.53781166
   9.81904988 12.12853362  5.92328050
   0.03173699  1.51211254 10.08453020
  11.82595463  1.50961784  4.36775260
   9.91101550 12.13161084  8.53095027
   1.92908275 12.12526084  5.93527194
   7.99663087  1.49929708  1.27923529
   3.86237844  1.39442690  1.53236643
   7.89826226  1.49763215  4.47831122
   5.98387257  0.00078672  2.84303293
   3.93811378  1.40609482  4.24614839
   7.88003473  1.51177609 -1.32467689
   2.02558331 12.10930400  2.74096251
   9.82479341 12.12640025  0.12763316
   0.03830290  1.50834446  4.30941271
  11.82665420  1.50422918 -1.43883660
   9.91132840  0.00043644  2.74432401
   1.92700758 12.12251945  0.13121200
   5.90992685 12.12721250  0.01793483
   3.99040171  1.50925698  9.98010901
   5.90875814 12.12780776  5.84204749
   5.96613304  0.00007062  8.63795309
   9.81475980  3.03266305  5.91597971
   0.03175655  4.55416739 10.08418329
  11.82559066  4.55649416  4.36796051
   9.92447578  3.03356273  8.53191703
   1.92869062  3.03361275  5.92616945
   3.88599580  7.57910084  7.37175029
   3.86262621  4.67317000  1.53240991
   6.07470318  3.03383323  2.83435961
   5.89133156  3.03419621  0.02639214
   3.93800410  4.66145724  4.24580719
   7.88087409  4.55545955 -1.32492302
   1.97116991  3.03491059  2.70497102
   9.82477474  3.03300389  0.12301542
   0.03841314  4.55908966  4.30968803
  11.82609527  4.56329054 -1.43881760
   9.91890270  3.03349523  2.74108340
   1.95467406  3.03431527  0.12119818
   7.97833993  1.51345395  7.08707057
   3.88656022  1.51049396  7.37672640
   7.89902072  4.56881067  4.47794392
   7.97881358  7.58147375  7.08580922
   1.93723026  9.10014021  0.13989532
   9.91970003  9.09950726  2.74217385
  11.82234067 10.61859971 -1.42779114
   0.03433712 10.62359757  4.30888523
   9.81848093  9.09934968  0.12735002
   2.03712194  9.10010272  2.75078721
   7.88551902 10.62161502 -1.32449168
   3.99060102 10.60750689  4.19256944
   5.90052914  9.10027592  0.02375358
   5.97728268  9.09954300  2.84342928
   3.88879273 10.60078536  1.58439862
   7.98269337 10.61776457  1.29113365
   1.93346608  9.09945569  5.93070302
   9.91816456  9.09989355  8.52932218
  11.82310032 10.62203689  4.36956271
   0.02995316 10.62069932 10.08594070
   9.81435535  9.09922773  5.91624259
   2.04471508  9.09963866  8.54450784
   7.88402235 10.62067907  4.46947970
   3.98874823 10.62397265  9.98698769
   5.89887776  9.10041116  5.82516783
   5.96626917  9.09994716  8.63732956
   3.88583438 10.61956187  7.37155658
   7.97878140 10.61790173  7.08589716
 


--------------------------------------------------------------------------------------------------------


 k-point  1 :   0.2500 0.2500 0.2500  plane waves:   30269

 maximum and minimum number of plane-waves per node :     30269    30269

 maximum number of plane-waves:     30269
 maximum index in each direction: 
   IXMAX=   19   IYMAX=   19   IZMAX=   18
   IXMIN=  -20   IYMIN=  -20   IZMIN=  -19


 serial   3D FFT for wavefunctions
 parallel 3D FFT for charge:
    minimum data exchange during FFTs selected (reduces bandwidth)


 FFT grid for exact exchange (Hartree Fock) 
  NGX = 42; NGY = 42; NGZ = 40

 
 Radii for the augmentation spheres in the non-local exchange
 for species   1 augmentation radius   1.277 (default was   1.031)
       energy cutoff for augmentation   1600.0
 for species   2 augmentation radius   1.215 (default was   0.950)
       energy cutoff for augmentation   1600.0
 for species   3 augmentation radius   0.820 (default was   0.722)
       energy cutoff for augmentation   1600.0
 Maximum index for augmentation-charges in exchange          381
  SETUP_FOCK is finished

 total amount of memory used by VASP MPI-rank0    98758. kBytes
=======================================================================

   base      :      30000. kBytes
   nonlr-proj:      34134. kBytes
   fftplans  :       1403. kBytes
   grid      :      18679. kBytes
   one-center:       4976. kBytes
   HF        :        194. kBytes
   wavefun   :       9372. kBytes
 
     INWAV:  cpu time    2.4892: real time    2.7305
 Broyden mixing: mesh for mixing (old mesh)
   NGX = 39   NGY = 39   NGZ = 37
  (NGX  =120   NGY  =120   NGZ  =120)
  gives a total of  56277 points

 charge density for first step will be calculated from the start-wavefunctions


--------------------------------------------------------------------------------------------------------


 Maximum index for non-local projection operator         1805
 Maximum index for augmentation-charges          168 (set IRDMAX)


--------------------------------------------------------------------------------------------------------


 initial charge from wavefunction
 First call to EWALD:  gamma=   0.150
 Maximum number of real-space cells 3x 3x 3
 Maximum number of reciprocal cells 3x 3x 3

    FEWALD:  cpu time    0.0052: real time    0.0052


--------------------------------------- Iteration      1(   1)  ---------------------------------------


    POTLOK:  cpu time    0.1001: real time    0.1011
    SETDIJ:  cpu time    1.7891: real time    1.7892
    TRIAL :  cpu time   78.8309: real time   79.0218
    CORREC:  cpu time   79.6748: real time   79.8539
    CHARGE:  cpu time    0.1337: real time    0.1337
    --------------------------------------------
      LOOP:  cpu time  160.5492: real time  160.9239

 eigenvalue-minimisations  :     0
 total energy-change (2. order) :-0.1515396E+04  (-0.1509851E-02)
 number of electron    1410.0004596 magnetization       3.9999998
 augmentation part      614.7805464 magnetization       2.8168708

 Free energy of the ion-electron system (eV)
  ---------------------------------------------------
  alpha Z        PSCENC =      9581.60805417
  Ewald energy   TEWEN  =   -119159.63409680
  -Hartree energ DENC   =    -45137.07073181
  -exchange      EXHF   =      5305.81999186
  -V(xc)+E(xc)   XCENC  =      4777.30402631
  PAW double counting   =    128445.93861899  -150084.48460803
  entropy T*S    EENTRO =        -0.00000000
  eigenvalues    EBANDS =    -13871.89990121
  atomic energy  EATOM  =    178627.02312980
  ---------------------------------------------------
  free energy    TOTEN  =     -1515.39551672 eV

  energy without entropy =    -1515.39551672  energy(sigma->0) =    -1515.39551672
  exchange ACFDT corr.  =        -0.00000000  see jH, gK, PRB 81, 115126


--------------------------------------------------------------------------------------------------------




--------------------------------------- Iteration      1(   2)  ---------------------------------------


    POTLOK:  cpu time    0.0960: real time    0.0969
    SETDIJ:  cpu time    1.7323: real time    1.7331
    TRIAL :  cpu time   79.1241: real time   79.2930
    CORREC:  cpu time   79.7848: real time   79.9610
    CHARGE:  cpu time    0.1324: real time    0.1324
    --------------------------------------------
      LOOP:  cpu time  160.8722: real time  161.2330

 eigenvalue-minimisations  :     0
 total energy-change (2. order) :-0.1507185E-02  (-0.3781623E-03)
 number of electron    1410.0004596 magnetization       3.9999997
 augmentation part      614.7645287 magnetization       2.8153455

 Free energy of the ion-electron system (eV)
  ---------------------------------------------------
  alpha Z        PSCENC =      9581.60805417
  Ewald energy   TEWEN  =   -119159.63409680
  -Hartree energ DENC   =    -45140.18472730
  -exchange      EXHF   =      5305.99061409
  -V(xc)+E(xc)   XCENC  =      4777.43668837
  PAW double counting   =    128439.32840403  -150079.69423669
  entropy T*S    EENTRO =        -0.00000000
  eigenvalues    EBANDS =    -13867.27085357
  atomic energy  EATOM  =    178627.02312980
  ---------------------------------------------------
  free energy    TOTEN  =     -1515.39702390 eV

  energy without entropy =    -1515.39702390  energy(sigma->0) =    -1515.39702390
  exchange ACFDT corr.  =         0.00000000  see jH, gK, PRB 81, 115126


--------------------------------------------------------------------------------------------------------




--------------------------------------- Iteration      1(   3)  ---------------------------------------


    POTLOK:  cpu time    0.0909: real time    0.0918
    SETDIJ:  cpu time    1.7779: real time    1.7779
    TRIAL :  cpu time   79.1485: real time   79.3458
    CORREC:  cpu time   79.8160: real time   80.0010
    CHARGE:  cpu time    0.1334: real time    0.1334
    --------------------------------------------
      LOOP:  cpu time  160.9706: real time  161.3701

 eigenvalue-minimisations  :     0
 total energy-change (2. order) :-0.3778373E-03  (-0.1492487E-03)
 number of electron    1410.0004596 magnetization       3.9999997
 augmentation part      614.7639324 magnetization       2.8152067

 Free energy of the ion-electron system (eV)
  ---------------------------------------------------
  alpha Z        PSCENC =      9581.60805417
  Ewald energy   TEWEN  =   -119159.63409680
  -Hartree energ DENC   =    -45138.58268742
  -exchange      EXHF   =      5305.93439544
  -V(xc)+E(xc)   XCENC  =      4777.38493481
  PAW double counting   =    128433.56193434  -150072.25307979
  entropy T*S    EENTRO =        -0.00000000
  eigenvalues    EBANDS =    -13870.43998630
  atomic energy  EATOM  =    178627.02312980
  ---------------------------------------------------
  free energy    TOTEN  =     -1515.39740174 eV

  energy without entropy =    -1515.39740174  energy(sigma->0) =    -1515.39740174
  exchange ACFDT corr.  =         0.00000000  see jH, gK, PRB 81, 115126


--------------------------------------------------------------------------------------------------------




--------------------------------------- Iteration      1(   4)  ---------------------------------------


    POTLOK:  cpu time    0.0912: real time    0.0921
    SETDIJ:  cpu time    1.7422: real time    1.7423
    TRIAL :  cpu time   79.2135: real time   79.3901
    CORREC:  cpu time   80.1840: real time   80.3666
    CHARGE:  cpu time    0.1341: real time    0.1341
    --------------------------------------------
      LOOP:  cpu time  161.3681: real time  161.7470

 eigenvalue-minimisations  :     0
 total energy-change (2. order) :-0.1493690E-03  (-0.4964849E-04)
 number of electron    1410.0004596 magnetization       3.9999997
 augmentation part      614.7669610 magnetization       2.8153592

 Free energy of the ion-electron system (eV)
  ---------------------------------------------------
  alpha Z        PSCENC =      9581.60805417
  Ewald energy   TEWEN  =   -119159.63409680
  -Hartree energ DENC   =    -45138.58678991
  -exchange      EXHF   =      5305.92126237
  -V(xc)+E(xc)   XCENC  =      4777.37950908
  PAW double counting   =    128432.18654071  -150071.04790642
  entropy T*S    EENTRO =        -0.00000000
  eigenvalues    EBANDS =    -13870.24725410
  atomic energy  EATOM  =    178627.02312980
  ---------------------------------------------------
  free energy    TOTEN  =     -1515.39755111 eV

  energy without entropy =    -1515.39755111  energy(sigma->0) =    -1515.39755111
  exchange ACFDT corr.  =         0.00000000  see jH, gK, PRB 81, 115126


--------------------------------------------------------------------------------------------------------




--------------------------------------- Iteration      1(   5)  ---------------------------------------


    POTLOK:  cpu time    0.0958: real time    0.0966
    SETDIJ:  cpu time    1.7465: real time    1.7466
    TRIAL :  cpu time   78.6931: real time   78.8707
    CORREC:  cpu time   80.0110: real time   80.1928
    EDDIAG:  cpu time   77.5835: real time   77.7624
    CHARGE:  cpu time    0.1357: real time    0.1357
    --------------------------------------------
      LOOP:  cpu time  238.2682: real time  238.8274

 eigenvalue-minimisations  :     0
 total energy-change (2. order) :-0.5016057E-04  (-0.3465184E-04)
 number of electron    1410.0004596 magnetization       3.9999997
 augmentation part      614.7673346 magnetization       2.8154009

 Free energy of the ion-electron system (eV)
  ---------------------------------------------------
  alpha Z        PSCENC =      9581.60805417
  Ewald energy   TEWEN  =   -119159.63409680
  -Hartree energ DENC   =    -45139.04098241
  -exchange      EXHF   =      5305.96217193
  -V(xc)+E(xc)   XCENC  =      4777.39451487
  PAW double counting   =    128432.55045172  -150071.81203961
  entropy T*S    EENTRO =        -0.00000000
  eigenvalues    EBANDS =    -13869.42705173
  atomic energy  EATOM  =    178627.02312980
  ---------------------------------------------------
  free energy    TOTEN  =     -1515.39760127 eV

  energy without entropy =    -1515.39760127  energy(sigma->0) =    -1515.39760127
  exchange ACFDT corr.  =         0.00000000  see jH, gK, PRB 81, 115126


--------------------------------------------------------------------------------------------------------


  average scaling for gradient   0.9176


 average (electrostatic) potential at core
  the test charge radii are     1.0314  0.9500  0.7215
  (the norm of the test charge is              1.0000)
       1 -20.1437       2 -20.1969       3 -20.2755       4 -20.1809       5 -20.2073
       6 -20.2392       7 -20.1709       8 -20.1805       9 -20.2436      10 -20.1910
      11 -20.2119      12 -20.1312      13 -20.0761      14 -20.0999      15 -20.1876
      16 -20.1778      17 -19.9298      18 -20.0167      19 -20.0450      20 -20.2221
      21 -20.2128      22 -19.7978      23 -20.2085      24 -20.1372      25 -19.9516
      26 -20.2265      27 -20.1808      28 -20.1784      29 -19.9330      30 -20.0178
      31 -20.0468      32 -19.7976      33 -20.1481      34 -20.1428      35 -20.1482
      36 -20.2032      37 -20.1792      38 -19.9513      39 -20.2273      40 -20.1506
      41 -20.1329      42 -20.1374      43 -20.1704      44 -20.2392      45 -20.1801
      46 -20.1513      47 -20.1531      48 -20.2389      49 -20.2492      50 -20.2122
      51 -20.0762      52 -20.2079      53 -20.2118      54 -20.0623      55 -20.2469
      56 -20.2675      57 -20.2899      58 -20.2054      59 -20.1802      60 -20.2742
      61 -20.1954      62 -20.2391      63 -20.2379      64 -36.0702      65 -63.7219
      66 -63.6449      67 -63.5719      68 -63.0922      69 -63.4915      70 -63.5410
      71 -63.5682      72 -63.4626      73 -63.2595      74 -63.2824      75 -63.7057
      76 -63.7348      77 -63.5925      78 -63.5981      79 -63.2615      80 -63.2037
      81 -63.7582      82 -63.6261      83 -63.4332      84 -63.4753      85 -63.1272
      86 -63.2970      87 -63.5316      88 -63.7278      89 -63.5576      90 -63.2740
      91 -63.1888      92 -63.7074      93 -63.7066      94 -63.7060      95 -63.7343
      96 -63.5469      97 -63.5560      98 -63.2611      99 -63.2044     100 -63.7074
     101 -63.2271     102 -63.2162     103 -63.4335     104 -62.4915     105 -63.2529
     106 -63.5326     107 -63.7293     108 -63.5030     109 -63.4647     110 -63.2749
     111 -63.0931     112 -63.4912     113 -63.1889     114 -63.4613     115 -63.5671
     116 -63.7185     117 -63.5454     118 -63.5556     119 -63.2470     120 -63.2009
     121 -63.7283     122 -63.2242     123 -63.0379     124 -63.5113     125 -62.4924
     126 -63.2535     127 -63.2594     128 -63.7190     129 -63.5023     130 -63.4635
     131 -63.2692     132 -63.1184     133 -63.7198     134 -63.6456     135 -63.2161
     136 -63.7740     137 -63.2296     138 -63.3208     139 -63.5430     140 -63.5587
     141 -63.7839     142 -63.6537     143 -63.2965     144 -63.1276     145 -63.5908
     146 -63.5582     147 -63.6254     148 -63.7583     149 -63.2830     150 -63.3136
     151 -63.5977     152 -63.5901     153 -63.7818     154 -63.7813     155 -63.2817
     156 -63.2602     157 -63.5781     158 -63.6378     159 -63.7275     160 -63.7730
 
 
 
 E-fermi :   4.3189     XC(G=0):  -8.8870     alpha+bet :-11.2572


 spin component 1

 k-point     1 :       0.2500    0.2500    0.2500
  band No.  band energies     occupation 
      1     -56.9785      1.00000
      2     -55.4993      1.00000
      3     -55.0580      1.00000
      4     -20.0443      1.00000
      5     -19.9135      1.00000
      6     -19.8517      1.00000
      7     -19.8144      1.00000
      8     -19.6992      1.00000
      9     -19.6622      1.00000
     10     -19.6076      1.00000
     11     -19.4513      1.00000
     12     -19.4227      1.00000
     13     -19.4045      1.00000
     14     -19.3596      1.00000
     15     -19.3465      1.00000
     16     -19.2897      1.00000
     17     -19.2542      1.00000
     18     -19.2196      1.00000
     19     -19.1813      1.00000
     20     -19.1367      1.00000
     21     -19.1064      1.00000
     22     -19.0943      1.00000
     23     -19.0671      1.00000
     24     -19.0600      1.00000
     25     -19.0495      1.00000
     26     -19.0299      1.00000
     27     -19.0059      1.00000
     28     -18.9897      1.00000
     29     -18.9690      1.00000
     30     -18.9598      1.00000
     31     -18.9426      1.00000
     32     -18.9346      1.00000
     33     -18.9116      1.00000
     34     -18.9039      1.00000
     35     -18.8918      1.00000
     36     -18.8724      1.00000
     37     -18.8663      1.00000
     38     -18.8426      1.00000
     39     -18.8359      1.00000
     40     -18.8188      1.00000
     41     -18.7904      1.00000
     42     -18.7821      1.00000
     43     -18.7753      1.00000
     44     -18.7533      1.00000
     45     -18.7310      1.00000
     46     -18.7236      1.00000
     47     -18.7131      1.00000
     48     -18.7068      1.00000
     49     -18.6943      1.00000
     50     -18.6895      1.00000
     51     -18.6623      1.00000
     52     -18.6590      1.00000
     53     -18.6484      1.00000
     54     -18.6403      1.00000
     55     -18.6349      1.00000
     56     -18.6263      1.00000
     57     -18.6069      1.00000
     58     -18.6029      1.00000
     59     -18.5888      1.00000
     60     -18.5847      1.00000
     61     -18.5688      1.00000
     62     -18.5623      1.00000
     63     -18.5488      1.00000
     64     -18.5218      1.00000
     65     -18.5053      1.00000
     66     -18.4868      1.00000
     67     -18.4828      1.00000
     68     -18.4561      1.00000
     69     -18.4447      1.00000
     70     -18.4345      1.00000
     71     -18.4251      1.00000
     72     -18.4167      1.00000
     73     -18.4092      1.00000
     74     -18.3997      1.00000
     75     -18.3905      1.00000
     76     -18.3861      1.00000
     77     -18.3782      1.00000
     78     -18.3711      1.00000
     79     -18.3676      1.00000
     80     -18.3569      1.00000
     81     -18.3517      1.00000
     82     -18.3455      1.00000
     83     -18.3386      1.00000
     84     -18.3312      1.00000
     85     -18.3185      1.00000
     86     -18.3102      1.00000
     87     -18.2992      1.00000
     88     -18.2959      1.00000
     89     -18.2834      1.00000
     90     -18.2723      1.00000
     91     -18.2633      1.00000
     92     -18.2414      1.00000
     93     -18.2357      1.00000
     94     -18.2283      1.00000
     95     -18.2088      1.00000
     96     -18.1892      1.00000
     97     -18.1180      1.00000
     98     -17.7403      1.00000
     99     -17.7117      1.00000
    100     -14.3616      1.00000
    101     -14.3489      1.00000
    102     -14.3350      1.00000
    103     -14.3301      1.00000
    104     -14.3256      1.00000
    105     -14.3140      1.00000
    106     -14.3075      1.00000
    107     -14.2977      1.00000
    108     -14.2919      1.00000
    109     -14.2865      1.00000
    110     -14.2806      1.00000
    111     -14.2742      1.00000
    112     -14.2732      1.00000
    113     -14.2671      1.00000
    114     -14.2654      1.00000
    115     -14.2632      1.00000
    116     -14.2604      1.00000
    117     -14.2585      1.00000
    118     -14.2543      1.00000
    119     -14.2541      1.00000
    120     -14.2505      1.00000
    121     -14.2469      1.00000
    122     -14.2429      1.00000
    123     -14.2382      1.00000
    124     -14.2351      1.00000
    125     -14.2335      1.00000
    126     -14.2306      1.00000
    127     -14.2286      1.00000
    128     -14.2256      1.00000
    129     -14.2242      1.00000
    130     -14.2226      1.00000
    131     -14.2211      1.00000
    132     -14.2187      1.00000
    133     -14.2164      1.00000
    134     -14.2147      1.00000
    135     -14.2130      1.00000
    136     -14.2106      1.00000
    137     -14.2095      1.00000
    138     -14.2078      1.00000
    139     -14.2039      1.00000
    140     -14.2015      1.00000
    141     -14.2000      1.00000
    142     -14.1980      1.00000
    143     -14.1957      1.00000
    144     -14.1922      1.00000
    145     -14.1896      1.00000
    146     -14.1887      1.00000
    147     -14.1867      1.00000
    148     -14.1854      1.00000
    149     -14.1818      1.00000
    150     -14.1792      1.00000
    151     -14.1764      1.00000
    152     -14.1751      1.00000
    153     -14.1727      1.00000
    154     -14.1702      1.00000
    155     -14.1688      1.00000
    156     -14.1652      1.00000
    157     -14.1620      1.00000
    158     -14.1574      1.00000
    159     -14.1546      1.00000
    160     -14.1526      1.00000
    161     -14.1502      1.00000
    162     -14.1461      1.00000
    163     -14.1422      1.00000
    164     -14.1391      1.00000
    165     -14.1373      1.00000
    166     -14.1363      1.00000
    167     -14.1323      1.00000
    168     -14.1289      1.00000
    169     -14.1268      1.00000
    170     -14.1255      1.00000
    171     -14.1237      1.00000
    172     -14.1192      1.00000
    173     -14.1163      1.00000
    174     -14.1124      1.00000
    175     -14.1118      1.00000
    176     -14.1083      1.00000
    177     -14.1021      1.00000
    178     -14.1000      1.00000
    179     -14.0964      1.00000
    180     -14.0947      1.00000
    181     -14.0925      1.00000
    182     -14.0881      1.00000
    183     -14.0859      1.00000
    184     -14.0849      1.00000
    185     -14.0819      1.00000
    186     -14.0792      1.00000
    187     -14.0762      1.00000
    188     -14.0730      1.00000
    189     -14.0717      1.00000
    190     -14.0693      1.00000
    191     -14.0683      1.00000
    192     -14.0669      1.00000
    193     -14.0648      1.00000
    194     -14.0640      1.00000
    195     -14.0602      1.00000
    196     -14.0594      1.00000
    197     -14.0587      1.00000
    198     -14.0556      1.00000
    199     -14.0539      1.00000
    200     -14.0503      1.00000
    201     -14.0477      1.00000
    202     -14.0475      1.00000
    203     -14.0441      1.00000
    204     -14.0418      1.00000
    205     -14.0386      1.00000
    206     -14.0373      1.00000
    207     -14.0341      1.00000
    208     -14.0332      1.00000
    209     -14.0308      1.00000
    210     -14.0289      1.00000
    211     -14.0265      1.00000
    212     -14.0259      1.00000
    213     -14.0244      1.00000
    214     -14.0218      1.00000
    215     -14.0206      1.00000
    216     -14.0190      1.00000
    217     -14.0175      1.00000
    218     -14.0161      1.00000
    219     -14.0151      1.00000
    220     -14.0120      1.00000
    221     -14.0095      1.00000
    222     -14.0074      1.00000
    223     -14.0062      1.00000
    224     -14.0043      1.00000
    225     -14.0029      1.00000
    226     -14.0007      1.00000
    227     -13.9981      1.00000
    228     -13.9967      1.00000
    229     -13.9910      1.00000
    230     -13.9886      1.00000
    231     -13.9873      1.00000
    232     -13.9845      1.00000
    233     -13.9833      1.00000
    234     -13.9822      1.00000
    235     -13.9788      1.00000
    236     -13.9777      1.00000
    237     -13.9742      1.00000
    238     -13.9720      1.00000
    239     -13.9685      1.00000
    240     -13.9669      1.00000
    241     -13.9654      1.00000
    242     -13.9632      1.00000
    243     -13.9615      1.00000
    244     -13.9603      1.00000
    245     -13.9593      1.00000
    246     -13.9551      1.00000
    247     -13.9535      1.00000
    248     -13.9499      1.00000
    249     -13.9491      1.00000
    250     -13.9469      1.00000
    251     -13.9446      1.00000
    252     -13.9425      1.00000
    253     -13.9378      1.00000
    254     -13.9374      1.00000
    255     -13.9346      1.00000
    256     -13.9328      1.00000
    257     -13.9293      1.00000
    258     -13.9265      1.00000
    259     -13.9253      1.00000
    260     -13.9242      1.00000
    261     -13.9216      1.00000
    262     -13.9185      1.00000
    263     -13.9177      1.00000
    264     -13.9164      1.00000
    265     -13.9135      1.00000
    266     -13.9106      1.00000
    267     -13.9087      1.00000
    268     -13.9076      1.00000
    269     -13.9067      1.00000
    270     -13.9033      1.00000
    271     -13.9023      1.00000
    272     -13.8995      1.00000
    273     -13.8976      1.00000
    274     -13.8961      1.00000
    275     -13.8949      1.00000
    276     -13.8919      1.00000
    277     -13.8906      1.00000
    278     -13.8882      1.00000
    279     -13.8876      1.00000
    280     -13.8846      1.00000
    281     -13.8820      1.00000
    282     -13.8800      1.00000
    283     -13.8788      1.00000
    284     -13.8766      1.00000
    285     -13.8751      1.00000
    286     -13.8732      1.00000
    287     -13.8727      1.00000
    288     -13.8715      1.00000
    289     -13.8686      1.00000
    290     -13.8655      1.00000
    291     -13.8640      1.00000
    292     -13.8608      1.00000
    293     -13.8593      1.00000
    294     -13.8562      1.00000
    295     -13.8555      1.00000
    296     -13.8525      1.00000
    297     -13.8512      1.00000
    298     -13.8492      1.00000
    299     -13.8486      1.00000
    300     -13.8450      1.00000
    301     -13.8440      1.00000
    302     -13.8432      1.00000
    303     -13.8405      1.00000
    304     -13.8397      1.00000
    305     -13.8383      1.00000
    306     -13.8354      1.00000
    307     -13.8336      1.00000
    308     -13.8317      1.00000
    309     -13.8273      1.00000
    310     -13.8261      1.00000
    311     -13.8219      1.00000
    312     -13.8188      1.00000
    313     -13.8174      1.00000
    314     -13.8142      1.00000
    315     -13.8121      1.00000
    316     -13.8096      1.00000
    317     -13.8060      1.00000
    318     -13.8045      1.00000
    319     -13.8027      1.00000
    320     -13.7999      1.00000
    321     -13.7983      1.00000
    322     -13.7941      1.00000
    323     -13.7902      1.00000
    324     -13.7860      1.00000
    325     -13.7819      1.00000
    326     -13.7803      1.00000
    327     -13.7778      1.00000
    328     -13.7751      1.00000
    329     -13.7718      1.00000
    330     -13.7635      1.00000
    331     -13.7611      1.00000
    332     -13.7536      1.00000
    333     -13.7513      1.00000
    334     -13.7481      1.00000
    335     -13.7467      1.00000
    336     -13.7425      1.00000
    337     -13.7351      1.00000
    338     -13.7310      1.00000
    339     -13.7248      1.00000
    340     -13.7215      1.00000
    341     -13.7064      1.00000
    342     -13.7027      1.00000
    343     -13.6984      1.00000
    344     -13.6949      1.00000
    345     -13.6819      1.00000
    346     -13.6734      1.00000
    347     -13.6664      1.00000
    348     -13.6635      1.00000
    349     -13.6519      1.00000
    350     -13.6456      1.00000
    351     -13.6376      1.00000
    352     -13.6323      1.00000
    353     -13.6260      1.00000
    354     -13.6235      1.00000
    355     -13.6117      1.00000
    356     -13.6003      1.00000
    357     -13.5924      1.00000
    358     -13.5750      1.00000
    359     -13.5690      1.00000
    360     -13.5534      1.00000
    361     -13.5347      1.00000
    362     -13.5290      1.00000
    363     -13.5245      1.00000
    364     -13.5209      1.00000
    365     -13.5110      1.00000
    366     -13.5079      1.00000
    367     -13.4924      1.00000
    368     -13.4740      1.00000
    369     -13.4579      1.00000
    370     -13.4547      1.00000
    371     -13.4471      1.00000
    372     -13.4389      1.00000
    373     -13.4341      1.00000
    374     -13.4030      1.00000
    375     -13.4006      1.00000
    376     -13.3877      1.00000
    377     -13.3773      1.00000
    378     -13.3721      1.00000
    379     -13.3641      1.00000
    380     -13.3446      1.00000
    381     -13.3326      1.00000
    382     -13.3197      1.00000
    383     -13.3023      1.00000
    384     -13.2868      1.00000
    385     -13.2732      1.00000
    386     -13.2631      1.00000
    387     -13.2485      1.00000
    388     -13.2364      1.00000
    389     -13.2072      1.00000
    390     -13.1886      1.00000
    391     -13.1689      1.00000
    392     -13.1547      1.00000
    393     -13.1429      1.00000
    394     -13.1219      1.00000
    395     -13.1203      1.00000
    396     -13.1020      1.00000
    397     -13.0930      1.00000
    398     -13.0800      1.00000
    399     -13.0722      1.00000
    400     -13.0604      1.00000
    401     -13.0415      1.00000
    402     -13.0308      1.00000
    403     -13.0137      1.00000
[...]
      1.92875      3.03360      5.92656         0.002694     -0.000299      0.001254
      3.88601      7.57930      7.37194        -0.002108     -0.001888      0.000798
      3.86283      4.67308      1.53224        -0.001523     -0.007642      0.009383
      6.07487      3.03376      2.83428        -0.013357     -0.000248     -0.001425
      5.89200      3.03417      0.02618         0.004925     -0.000195     -0.006506
      3.93792      4.66218      4.24599        -0.010507      0.022530      0.009010
      7.88116      4.55574     -1.32432         0.003393     -0.002577     -0.000700
      1.97136      3.03486      2.70503         0.016716     -0.001894      0.002945
      9.82446      3.03303      0.12344         0.004223      0.001779     -0.002131
      0.03726      4.55961      4.30971        -0.007501     -0.003951     -0.001079
     11.82593      4.56397     -1.43886         0.019128     -0.004817     -0.003305
      9.91856      3.03350      2.74023        -0.001808      0.000368     -0.001343
      1.95483      3.03428      0.12140         0.007442     -0.000915      0.007679
      7.97849      1.51333      7.08695         0.000183      0.004827     -0.001464
      3.88630      1.51033      7.37714        -0.003839      0.002072      0.001732
      7.89929      4.56912      4.47848         0.002107     -0.003316      0.002393
      7.97886      7.58163      7.08571        -0.000446     -0.003512      0.000563
      1.93707      9.10014      0.13957         0.004114     -0.000903      0.007332
      9.91936      9.09954      2.74146        -0.002641      0.000358     -0.002199
     11.82220     10.61799     -1.42772         0.013397      0.005073      0.000968
      0.03299     10.62298      4.30895        -0.003417      0.004387     -0.000738
      9.81822      9.09937      0.12771         0.000716     -0.000137     -0.003873
      2.03687      9.10013      2.75108         0.006095     -0.000038     -0.001092
      7.88590     10.62133     -1.32386         0.005903      0.002396     -0.000587
      3.99074     10.60723      4.19262        -0.003728      0.003221     -0.009066
      5.90181      9.10023      0.02366         0.005641      0.000443     -0.002011
      5.97733      9.09956      2.84338        -0.014179      0.000033     -0.000715
      3.88911     10.60056      1.58405        -0.004081     -0.000014     -0.000137
      7.98301     10.61755      1.29079         0.000254      0.001904      0.000995
      1.93342      9.09945      5.93109         0.000384     -0.001415      0.004027
      9.91791      9.09987      8.52890        -0.004556     -0.000030     -0.004942
     11.82321     10.62133      4.36959         0.011011      0.006913      0.000521
      0.02897     10.62013     10.08589        -0.007684      0.006097     -0.001601
      9.81427      9.09921      5.91633        -0.002453     -0.000009     -0.001434
      2.04466      9.09964      8.54443         0.000979      0.000015      0.001453
      7.88425     10.62039      4.46982         0.002573      0.003546      0.002550
      3.98865     10.62375      9.98658        -0.005547      0.002961     -0.004608
      5.89995      9.10038      5.82519         0.004612     -0.000568     -0.000937
      5.96606      9.09988      8.63738        -0.013620     -0.000888      0.001878
      3.88581     10.61935      7.37180        -0.001952      0.001616      0.000637
      7.97882     10.61772      7.08580        -0.000404      0.003019      0.000029
 -----------------------------------------------------------------------------------
    total drift:                                0.077476      0.013399     -0.284501


--------------------------------------------------------------------------------------------------------



  FREE ENERGIE OF THE ION-ELECTRON SYSTEM (eV)
  ---------------------------------------------------
  free  energy   TOTEN  =     -1515.40007693 eV

  energy  without entropy=    -1515.40007693  energy(sigma->0) =    -1515.40007693
 
 d Force = 0.1185194E-02[-0.122E-03, 0.249E-02]  d Energy = 0.1214704E-02-0.295E-04
 d Force = 0.4277502E-01[ 0.230E-01, 0.626E-01]  d Ewald  = 0.4277887E-01-0.385E-05


--------------------------------------------------------------------------------------------------------


    POTLOK:  cpu time    1.8550: real time    1.8551


--------------------------------------------------------------------------------------------------------




--------------------------------------------------------------------------------------------------------


  
 reached required accuracy - stopping structural energy minimisation
 writing wavefunctions
     LOOP+:  cpu time 1385.2659: real time 1390.5163
    4ORBIT:  cpu time    0.0000: real time    0.0000
 


 total charge     
 
# of ion       s       p       d       tot
------------------------------------------
    1        0.755   1.016  10.310  12.081
    2        0.754   1.008  10.303  12.065
    3        0.755   1.012  10.306  12.073
    4        0.657   0.831  10.274  11.762
    5        0.658   0.833  10.274  11.764
    6        0.755   1.015  10.308  12.078
    7        0.757   1.021  10.311  12.090
    8        0.657   0.829  10.272  11.758
    9        0.753   1.005  10.302  12.060
   10        0.755   1.009  10.304  12.068
   11        0.657   0.831  10.273  11.761
   12        0.659   0.839  10.279  11.778
   13        0.656   0.831  10.274  11.761
   14        0.752   1.002  10.302  12.057
   15        0.754   1.007  10.303  12.064
   16        0.657   0.831  10.273  11.761
   17        0.655   0.829  10.275  11.758
   18        0.759   1.026  10.316  12.100
   19        0.756   1.018  10.310  12.084
   20        0.654   0.816  10.263  11.732
   21        0.754   1.009  10.304  12.067
   22        0.662   0.842  10.283  11.787
   23        0.756   1.016  10.309  12.081
   24        0.657   0.834  10.276  11.767
   25        0.759   1.016  10.309  12.083
   26        0.755   1.013  10.307  12.075
   27        0.757   1.022  10.312  12.091
   28        0.657   0.830  10.273  11.761
   29        0.655   0.828  10.274  11.758
   30        0.759   1.026  10.316  12.100
   31        0.756   1.018  10.310  12.084
   32        0.662   0.842  10.283  11.787
   33        0.658   0.837  10.278  11.773
   34        0.755   1.016  10.310  12.081
   35        0.658   0.837  10.278  11.773
   36        0.655   0.817  10.263  11.735
   37        0.757   1.022  10.312  12.091
   38        0.759   1.016  10.309  12.083
   39        0.755   1.013  10.307  12.075
   40        0.656   0.827  10.271  11.754
   41        0.659   0.839  10.279  11.778
   42        0.657   0.834  10.276  11.767
   43        0.757   1.021  10.312  12.090
   44        0.755   1.015  10.308  12.078
   45        0.657   0.829  10.272  11.758
   46        0.656   0.827  10.271  11.754
   47        0.656   0.824  10.269  11.748
   48        0.754   1.007  10.303  12.064
   49        0.756   1.014  10.307  12.077
   50        0.657   0.831  10.273  11.761
   51        0.656   0.831  10.275  11.762
   52        0.756   1.016  10.309  12.081
   53        0.754   1.009  10.304  12.067
   54        0.657   0.833  10.275  11.765
   55        0.656   0.825  10.269  11.749
   56        0.754   1.008  10.303  12.066
   57        0.754   1.009  10.304  12.068
   58        0.658   0.833  10.275  11.765
   59        0.657   0.832  10.274  11.763
   60        0.755   1.012  10.306  12.073
   61        0.754   1.008  10.303  12.065
   62        0.655   0.822  10.267  11.744
   63        0.657   0.826  10.270  11.753
   64        0.220   6.256   5.928  12.404
   65        1.584   3.573   0.000   5.157
   66        1.584   3.573   0.000   5.157
   67        1.578   3.614   0.000   5.191
   68        1.580   3.588   0.000   5.168
   69        1.578   3.617   0.000   5.195
   70        1.578   3.617   0.000   5.195
   71        1.578   3.617   0.000   5.195
   72        1.578   3.616   0.000   5.194
   73        1.580   3.583   0.000   5.162
   74        1.580   3.584   0.000   5.164
   75        1.584   3.575   0.000   5.159
   76        1.585   3.576   0.000   5.160
   77        1.578   3.616   0.000   5.194
   78        1.578   3.615   0.000   5.193
   79        1.580   3.586   0.000   5.166
   80        1.580   3.590   0.000   5.170
   81        1.584   3.574   0.000   5.158
   82        1.584   3.574   0.000   5.158
   83        1.578   3.613   0.000   5.191
   84        1.577   3.605   0.000   5.182
   85        1.580   3.584   0.000   5.164
   86        1.580   3.583   0.000   5.164
   87        1.585   3.579   0.000   5.164
   88        1.585   3.576   0.000   5.161
   89        1.578   3.615   0.000   5.193
   90        1.580   3.585   0.000   5.165
   91        1.580   3.586   0.000   5.166
   92        1.585   3.577   0.000   5.161
   93        1.584   3.571   0.000   5.155
   94        1.584   3.575   0.000   5.159
   95        1.585   3.576   0.000   5.160
   96        1.578   3.614   0.000   5.192
   97        1.578   3.614   0.000   5.192
   98        1.580   3.586   0.000   5.166
   99        1.580   3.590   0.000   5.170
  100        1.585   3.577   0.000   5.161
  101        1.582   3.585   0.000   5.167
  102        1.580   3.586   0.000   5.166
  103        1.578   3.613   0.000   5.191
  104        1.581   3.582   0.000   5.163
  105        1.580   3.583   0.000   5.164
  106        1.585   3.579   0.000   5.164
  107        1.585   3.577   0.000   5.161
  108        1.578   3.615   0.000   5.192
  109        1.579   3.614   0.000   5.193
  110        1.580   3.585   0.000   5.165
  111        1.581   3.588   0.000   5.168
  112        1.578   3.617   0.000   5.195
  113        1.580   3.586   0.000   5.166
  114        1.578   3.616   0.000   5.194
  115        1.578   3.617   0.000   5.195
  116        1.584   3.570   0.000   5.154
  117        1.578   3.614   0.000   5.192
  118        1.578   3.614   0.000   5.192
  119        1.580   3.583   0.000   5.162
  120        1.579   3.583   0.000   5.162
  121        1.584   3.571   0.000   5.155
  122        1.582   3.585   0.000   5.167
  123        1.579   3.619   0.000   5.198
  124        1.577   3.606   0.000   5.183
  125        1.581   3.583   0.000   5.163
  126        1.580   3.583   0.000   5.164
  127        1.582   3.579   0.000   5.161
  128        1.584   3.570   0.000   5.154
  129        1.578   3.615   0.000   5.192
  130        1.579   3.615   0.000   5.193
  131        1.580   3.581   0.000   5.160
  132        1.580   3.581   0.000   5.162
  133        1.584   3.573   0.000   5.157
  134        1.584   3.573   0.000   5.157
  135        1.580   3.586   0.000   5.166
  136        1.584   3.575   0.000   5.159
  137        1.580   3.582   0.000   5.162
  138        1.580   3.582   0.000   5.162
  139        1.578   3.617   0.000   5.195
  140        1.578   3.615   0.000   5.193
  141        1.584   3.573   0.000   5.157
  142        1.584   3.573   0.000   5.156
  143        1.580   3.583   0.000   5.164
  144        1.580   3.584   0.000   5.164
  145        1.577   3.612   0.000   5.190
  146        1.578   3.613   0.000   5.191
  147        1.584   3.574   0.000   5.158
  148        1.584   3.574   0.000   5.158
  149        1.579   3.583   0.000   5.163
  150        1.580   3.584   0.000   5.163
  151        1.578   3.615   0.000   5.193
  152        1.578   3.616   0.000   5.194
  153        1.584   3.573   0.000   5.156
  154        1.584   3.570   0.000   5.154
  155        1.580   3.584   0.000   5.164
  156        1.580   3.583   0.000   5.163
  157        1.577   3.612   0.000   5.189
  158        1.578   3.613   0.000   5.190
  159        1.584   3.571   0.000   5.155
  160        1.584   3.575   0.000   5.159
--------------------------------------------------
tot        196.509 409.203 654.2461259.958
 


 magnetization (x)
 
# of ion       s       p       d       tot
------------------------------------------
    1       -0.000   0.000   0.000  -0.000
    2       -0.000  -0.000  -0.000  -0.000
    3        0.000  -0.000   0.000  -0.000
    4        0.000   0.000   0.000   0.000
    5        0.000   0.000   0.000   0.000
    6       -0.000   0.000  -0.000  -0.000
    7        0.000   0.000   0.000   0.000
    8       -0.000  -0.000   0.000  -0.000
    9        0.000   0.000  -0.000   0.000
   10       -0.000  -0.000   0.000  -0.000
   11       -0.000  -0.000   0.000   0.000
   12        0.000   0.000   0.000   0.000
   13       -0.000  -0.000  -0.000  -0.000
   14        0.000   0.001   0.001   0.001
   15       -0.000  -0.000   0.000  -0.000
   16        0.000   0.000   0.000   0.000
   17        0.000   0.000  -0.000   0.000
   18        0.002   0.002   0.001   0.005
   19        0.000   0.001   0.000   0.002
   20       -0.000  -0.000  -0.000  -0.000
   21       -0.000  -0.000  -0.000  -0.000
   22       -0.001  -0.000  -0.000  -0.002
   23       -0.000  -0.000  -0.000  -0.000
   24        0.000  -0.000   0.000  -0.000
   25        0.000   0.001   0.001   0.002
   26        0.000   0.000   0.000   0.000
   27        0.000   0.000   0.000   0.000
   28        0.000   0.000   0.000   0.000
   29        0.000   0.000  -0.000   0.000
   30        0.002   0.002   0.001   0.005
   31        0.000   0.001   0.000   0.002
   32       -0.001  -0.000  -0.000  -0.002
   33        0.000   0.000   0.000   0.000
   34       -0.000   0.000   0.000  -0.000
   35        0.000   0.000   0.000   0.000
   36       -0.000  -0.000  -0.000  -0.000
   37        0.000   0.000   0.000   0.000
   38        0.000   0.001   0.001   0.002
   39        0.000   0.000   0.000   0.000
   40       -0.000  -0.000  -0.000  -0.000
   41        0.000   0.000   0.000   0.000
   42       -0.000  -0.000   0.000  -0.000
   43        0.000   0.000   0.000   0.000
   44       -0.000  -0.000  -0.000  -0.000
   45       -0.000  -0.000   0.000  -0.000
   46       -0.000  -0.000  -0.000  -0.000
   47       -0.000   0.000   0.000   0.000
   48       -0.000   0.000   0.000  -0.000
   49       -0.000  -0.000   0.000  -0.000
   50       -0.000  -0.000   0.000   0.000
   51       -0.000  -0.000  -0.000  -0.000
   52       -0.000  -0.000  -0.000  -0.000
   53       -0.000  -0.000  -0.000  -0.000
   54        0.000   0.000   0.000   0.000
   55       -0.000  -0.000   0.000  -0.000
   56        0.000  -0.000  -0.000   0.000
   57        0.000   0.000   0.000   0.000
   58        0.000   0.000   0.000   0.000
   59        0.000   0.000   0.000   0.000
   60       -0.000  -0.000  -0.000  -0.000
   61       -0.000  -0.000  -0.000  -0.000
   62        0.000   0.000   0.000   0.000
   63       -0.000  -0.000   0.000  -0.000
   64        0.018   0.015   3.643   3.676
   65        0.000   0.000   0.000   0.000
   66        0.000   0.000   0.000   0.000
   67       -0.000   0.000   0.000   0.000
   68        0.000   0.000   0.000   0.001
   69        0.000   0.001   0.000   0.001
   70       -0.000   0.000   0.000   0.000
   71        0.000   0.000   0.000   0.000
   72        0.000   0.001   0.000   0.001
   73        0.000   0.000   0.000   0.000
   74        0.000   0.000   0.000   0.000
   75        0.000   0.000   0.000   0.000
   76        0.000   0.000   0.000   0.000
   77        0.000   0.000   0.000   0.000
   78        0.000   0.000   0.000   0.000
   79        0.000   0.000   0.000   0.000
   80        0.000   0.000   0.000   0.000
   81       -0.000   0.000   0.000   0.000
   82        0.000   0.000   0.000   0.000
   83       -0.000  -0.000   0.000  -0.000
   84       -0.000  -0.001   0.000  -0.001
   85        0.000   0.000   0.000   0.000
   86        0.000   0.000   0.000   0.000
   87       -0.000  -0.000   0.000  -0.000
   88        0.000   0.000   0.000   0.000
   89       -0.000  -0.000   0.000  -0.000
   90        0.000   0.000   0.000   0.000
   91        0.000   0.000   0.000   0.000
   92        0.000   0.001   0.000   0.001
   93       -0.000  -0.000   0.000  -0.000
   94        0.000   0.000   0.000   0.000
   95        0.000   0.000   0.000   0.000
   96       -0.000  -0.000   0.000  -0.000
   97       -0.000   0.000   0.000   0.000
   98        0.000   0.000   0.000   0.000
   99        0.000   0.000   0.000   0.000
  100        0.000   0.001   0.000   0.001
  101        0.004   0.020   0.000   0.024
  102        0.000   0.001   0.000   0.001
  103       -0.000  -0.000   0.000  -0.000
  104        0.005   0.029   0.000   0.034
  105        0.000   0.000   0.000   0.000
  106       -0.000  -0.000   0.000  -0.000
  107        0.000   0.000   0.000   0.000
  108        0.000   0.000   0.000   0.000
  109        0.000   0.000   0.000   0.000
  110        0.000   0.000   0.000   0.000
  111        0.000   0.000   0.000   0.001
  112        0.000   0.001   0.000   0.001
  113        0.000   0.000   0.000   0.000
  114        0.000   0.001   0.000   0.001
  115        0.000   0.000   0.000   0.000
  116       -0.000   0.000   0.000   0.000
  117       -0.000  -0.000   0.000  -0.000
  118       -0.000   0.000   0.000   0.000
  119       -0.000   0.000   0.000   0.000
  120       -0.000  -0.000   0.000  -0.000
  121        0.000   0.000   0.000   0.000
  122        0.004   0.020   0.000   0.024
  123        0.005   0.028   0.000   0.033
  124       -0.000  -0.000   0.000  -0.001
  125        0.005   0.029   0.000   0.034
  126        0.000   0.000   0.000   0.000
  127        0.004   0.026   0.000   0.030
  128        0.000   0.000   0.000   0.000
  129        0.000   0.000   0.000   0.000
  130        0.000   0.000   0.000   0.000
  131        0.000   0.000   0.000   0.000
  132        0.000   0.000   0.000   0.000
  133        0.000   0.000   0.000   0.000
  134        0.000   0.000   0.000   0.000
  135        0.000   0.001   0.000   0.001
  136        0.000   0.000   0.000   0.000
  137        0.000   0.000   0.000   0.000
  138       -0.000   0.000   0.000   0.000
  139       -0.000   0.000   0.000   0.000
  140       -0.000  -0.000   0.000  -0.000
  141       -0.000  -0.000   0.000  -0.000
  142       -0.000   0.000   0.000   0.000
  143        0.000   0.000   0.000   0.000
  144        0.000   0.000   0.000   0.000
  145       -0.000  -0.000   0.000  -0.000
  146        0.000   0.000   0.000   0.000
  147        0.000   0.000   0.000   0.000
  148       -0.000   0.000   0.000   0.000
  149        0.000   0.000   0.000   0.000
  150        0.000   0.000   0.000   0.000
  151        0.000   0.000   0.000   0.000
  152        0.000   0.000   0.000   0.000
  153        0.000   0.000   0.000   0.000
  154        0.000   0.000   0.000   0.000
  155        0.000   0.000   0.000   0.000
  156        0.000   0.000   0.000   0.000
  157        0.000   0.000   0.000   0.000
  158        0.000   0.000   0.000   0.000
  159        0.000   0.000   0.000   0.000
  160        0.000   0.000   0.000   0.000
--------------------------------------------------
tot          0.051   0.185   3.647   3.883
 

 total amount of memory used by VASP MPI-rank0   108406. kBytes
=======================================================================

   base      :      30000. kBytes
   nonlr-proj:      43782. kBytes
   fftplans  :       1403. kBytes
   grid      :      18679. kBytes
   one-center:       4976. kBytes
   HF        :        194. kBytes
   wavefun   :       9372. kBytes
 
  
  
 General timing and accounting informations for this job:
 ========================================================
  
                  Total CPU time used (sec):     4203.733
                            User time (sec):     4061.606
                          System time (sec):      142.127
                         Elapsed time (sec):     4221.539
  
                   Maximum memory used (kb):      599428.
                   Average memory used (kb):           0.
  
                          Minor page faults:     23025975
                          Major page faults:           52
                 Voluntary context switches:        52352
