 vasp.5.4.4.18Apr17-6-g9f103f2a35 (build Jun 06 2017 17:32:29) complex          
  
 executed on      LLNL_Quartz_ifc date 2020.03.09  21:16:58
 running on  288 total cores
 distrk:  each k-point on  288 cores,    1 groups
 distr:  one band on NCORES_PER_BAND=   1 cores,  288 groups


--------------------------------------------------------------------------------------------------------


 INCAR:
 POTCAR:   PAW_PBE Ga_d 06Sep2000                 
 POTCAR:   PAW_PBE Fe_pv 06Sep2000                
 POTCAR:   PAW_PBE O 08Apr2002                    

 ----------------------------------------------------------------------------- 
|                                                                             |
|           W    W    AA    RRRRR   N    N  II  N    N   GGGG   !!!           |
|           W    W   A  A   R    R  NN   N  II  NN   N  G    G  !!!           |
|           W    W  A    A  R    R  N N  N  II  N N  N  G       !!!           |
|           W WW W  AAAAAA  RRRRR   N  N N  II  N  N N  G  GGG   !            |
|           WW  WW  A    A  R   R   N   NN  II  N   NN  G    G                |
|           W    W  A    A  R    R  N    N  II  N    N   GGGG   !!!           |
|                                                                             |
|      For optimal performance we recommend to set                            |
|        NCORE= 4 - approx SQRT( number of cores)                             |
|      NCORE specifies how many cores store one orbital (NPAR=cpu/NCORE).     |
|      This setting can  greatly improve the performance of VASP for DFT.     |
|      The default,   NCORE=1            might be grossly inefficient         |
|      on modern multi-core architectures or massively parallel machines.     |
|      Do your own testing !!!!                                               |
|      Unfortunately you need to use the default for GW and RPA calculations. |
|      (for HF NCORE is supported but not extensively tested yet)             |
|                                                                             |
 ----------------------------------------------------------------------------- 

 POTCAR:   PAW_PBE Ga_d 06Sep2000                 
   VRHFIN =Ga: s2p1                                                             
   LEXCH  = PE                                                                  
   EATOM  =  2149.0616 eV,  157.9516 Ry                                         
                                                                                
   TITEL  = PAW_PBE Ga_d 06Sep2000                                              
   LULTRA =        F    use ultrasoft PP ?                                      
   IUNSCR =        1    unscreen: 0-lin 1-nonlin 2-no                           
   RPACOR =    2.000    partial core radius                                     
   POMASS =   69.723; ZVAL   =   13.000    mass and valenz                      
   RCORE  =    2.300    outmost cutoff radius                                   
   RWIGS  =    2.300; RWIGS  =    1.217    wigner-seitz radius (au A)           
   ENMAX  =  282.697; ENMIN  =  212.022 eV                                      
   ICORE  =        3    local potential                                         
   LCOR   =        T    correct aug charges                                     
   LPAW   =        T    paw PP                                                  
   EAUG   =  490.690                                                            
   DEXC   =    -.001                                                            
   RMAX   =    2.742    core radius for proj-oper                               
   RAUG   =    1.300    factor for augmentation sphere                          
   RDEP   =    2.413    radius for radial grids                                 
   QCUT   =   -4.558; QGAM   =    9.117    optimization parameters              
                                                                                
   Description                                                                  
     l     E      TYP  RCUT    TYP  RCUT                                        
     2   .000     23  2.300                                                     
     2  -.400     23  2.300                                                     
     0   .000     23  2.300                                                     
     0   .000     23  2.300                                                     
     1   .000     23  2.300                                                     
     1   .000     23  2.300                                                     
     3  -.100      7  2.300                                                     
  local pseudopotential read in
  partial core-charges read in
  atomic valenz-charges read in
  non local Contribution for L=           2  read in
    real space projection operators read in
  non local Contribution for L=           2  read in
    real space projection operators read in
  non local Contribution for L=           0  read in
    real space projection operators read in
  non local Contribution for L=           0  read in
    real space projection operators read in
  non local Contribution for L=           1  read in
    real space projection operators read in
  non local Contribution for L=           1  read in
    real space projection operators read in
    PAW grid and wavefunctions read in
 
   number of l-projection  operators is LMAX  =           6
   number of lm-projection operators is LMMAX =          18
 
 POTCAR:   PAW_PBE Fe_pv 06Sep2000                
   VRHFIN =Fe:  3pd7s1                                                          
   LEXCH  = PE                                                                  
   EATOM  =  2456.8974 eV,  180.5769 Ry                                         
                                                                                
   TITEL  = PAW_PBE Fe_pv 06Sep2000                                             
   LULTRA =        F    use ultrasoft PP ?                                      
   IUNSCR =        1    unscreen: 0-lin 1-nonlin 2-no                           
   RPACOR =    1.750    partial core radius                                     
   POMASS =   55.847; ZVAL   =   14.000    mass and valenz                      
   RCORE  =    2.200    outmost cutoff radius                                   
   RWIGS  =    2.200; RWIGS  =    1.164    wigner-seitz radius (au A)           
   ENMAX  =  293.238; ENMIN  =  219.929 eV                                      
   RCLOC  =    1.701    cutoff for local pot                                    
   LCOR   =        T    correct aug charges                                     
   LPAW   =        T    paw PP                                                  
   EAUG   =  578.342                                                            
   DEXC   =    -.002                                                            
   RMAX   =    2.693    core radius for proj-oper                               
   RAUG   =    1.300    factor for augmentation sphere                          
   RDEP   =    2.296    radius for radial grids                                 
   QCUT   =   -4.642; QGAM   =    9.285    optimization parameters              
                                                                                
   Description                                                                  
     l     E      TYP  RCUT    TYP  RCUT                                        
     1   .000     23  2.000                                                     
     1  -.400     23  2.000                                                     
     2   .000     23  2.200                                                     
     2   .000     23  2.200                                                     
     0   .000     23  2.000                                                     
     0  2.000     23  2.000                                                     
     3   .000      7   .000                                                     
  local pseudopotential read in
  partial core-charges read in
  atomic valenz-charges read in
  non local Contribution for L=           1  read in
    real space projection operators read in
  non local Contribution for L=           1  read in
    real space projection operators read in
  non local Contribution for L=           2  read in
    real space projection operators read in
  non local Contribution for L=           2  read in
    real space projection operators read in
  non local Contribution for L=           0  read in
    real space projection operators read in
  non local Contribution for L=           0  read in
    real space projection operators read in
    PAW grid and wavefunctions read in
 
   number of l-projection  operators is LMAX  =           6
   number of lm-projection operators is LMMAX =          18
 
 POTCAR:   PAW_PBE O 08Apr2002                    
   VRHFIN =O: s2p4                                                              
   LEXCH  = PE                                                                  
   EATOM  =   432.3788 eV,   31.7789 Ry                                         
                                                                                
   TITEL  = PAW_PBE O 08Apr2002                                                 
   LULTRA =        F    use ultrasoft PP ?                                      
   IUNSCR =        0    unscreen: 0-lin 1-nonlin 2-no                           
   RPACOR =     .000    partial core radius                                     
   POMASS =   16.000; ZVAL   =    6.000    mass and valenz                      
   RCORE  =    1.520    outmost cutoff radius                                   
   RWIGS  =    1.550; RWIGS  =     .820    wigner-seitz radius (au A)           
   ENMAX  =  400.000; ENMIN  =  300.000 eV                                      
   ICORE  =        2    local potential                                         
   LCOR   =        T    correct aug charges                                     
   LPAW   =        T    paw PP                                                  
   EAUG   =  605.392                                                            
   DEXC   =     .000                                                            
   RMAX   =    2.264    core radius for proj-oper                               
   RAUG   =    1.300    factor for augmentation sphere                          
   RDEP   =    1.550    radius for radial grids                                 
   QCUT   =   -5.520; QGAM   =   11.041    optimization parameters              
                                                                                
   Description                                                                  
     l     E      TYP  RCUT    TYP  RCUT                                        
     0   .000     23  1.200                                                     
     0  -.700     23  1.200                                                     
     1   .000     23  1.520                                                     
     1   .600     23  1.520                                                     
     2   .000      7  1.500                                                     
  local pseudopotential read in
  atomic valenz-charges read in
  non local Contribution for L=           0  read in
    real space projection operators read in
  non local Contribution for L=           0  read in
    real space projection operators read in
  non local Contribution for L=           1  read in
    real space projection operators read in
  non local Contribution for L=           1  read in
    real space projection operators read in
    PAW grid and wavefunctions read in
 
   number of l-projection  operators is LMAX  =           4
   number of lm-projection operators is LMMAX =           8
 
 Optimization of the real space projectors (new method)

 maximal supplied QI-value         = 16.25
 optimisation between [QCUT,QGAM] = [ 10.24, 20.48] = [ 29.35,117.42] Ry 
 Optimized for a Real-space Cutoff    1.38 Angstroem

   l    n(q)    QCUT    max X(q) W(low)/X(q) W(high)/X(q)  e(spline) 
   2      7    10.239     6.328    0.33E-04    0.68E-04    0.30E-07
   2      7    10.239     9.625    0.20E-03    0.23E-03    0.80E-07
   0      8    10.239     9.711    0.17E-04    0.17E-04    0.13E-07
   0      8    10.239    32.764    0.56E-04    0.14E-03    0.62E-07
   1      8    10.239     7.413    0.78E-04    0.28E-04    0.38E-07
   1      8    10.239    31.472    0.43E-03    0.30E-03    0.73E-07
 Optimization of the real space projectors (new method)

 maximal supplied QI-value         = 17.01
 optimisation between [QCUT,QGAM] = [ 10.20, 20.41] = [ 29.16,116.64] Ry 
 Optimized for a Real-space Cutoff    1.51 Angstroem

   l    n(q)    QCUT    max X(q) W(low)/X(q) W(high)/X(q)  e(spline) 
   1      9    10.205     4.550    0.11E-04    0.61E-05    0.27E-07
   1      9    10.205     5.234    0.14E-04    0.12E-03    0.13E-06
   2      8    10.205     3.960    0.41E-04    0.45E-04    0.45E-07
   2      8    10.205    29.565    0.45E-03    0.40E-03    0.42E-06
   0      9    10.205    23.582    0.19E-04    0.16E-05    0.90E-08
   0      9    10.205    39.747    0.62E-04    0.50E-04    0.87E-07
 Optimization of the real space projectors (new method)

 maximal supplied QI-value         = 24.76
 optimisation between [QCUT,QGAM] = [ 10.15, 20.30] = [ 28.85,115.39] Ry 
 Optimized for a Real-space Cutoff    1.30 Angstroem

   l    n(q)    QCUT    max X(q) W(low)/X(q) W(high)/X(q)  e(spline) 
   0      8    10.150     4.192    0.55E-04    0.58E-04    0.78E-07
   0      8    10.150     8.473    0.46E-03    0.68E-03    0.23E-06
   1      7    10.150     2.474    0.11E-03    0.93E-04    0.33E-07
   1      7    10.150     3.912    0.46E-03    0.50E-03    0.15E-06
 PAW_PBE Ga_d 06Sep2000                 :
 energy of atom  1       EATOM=-2149.0616
 kinetic energy error for atom=    0.0101 (will be added to EATOM!!)
 PAW_PBE Fe_pv 06Sep2000                :
 energy of atom  2       EATOM=-2456.8974
 kinetic energy error for atom=    0.0365 (will be added to EATOM!!)
 PAW_PBE O 08Apr2002                    :
 energy of atom  3       EATOM= -432.3788
 kinetic energy error for atom=    0.1156 (will be added to EATOM!!)
 
 
 POSCAR: Ga Fe  O                                
  positions in direct lattice
  velocities in cartesian coordinates
 exchange correlation table for  LEXCH =        8
   RHO(1)=    0.500       N(1)  =     2000
   RHO(2)=  100.500       N(2)  =     4000
 


--------------------------------------------------------------------------------------------------------


 ion  position               nearest neighbor table
   1  0.090  1.000  0.396-  99 1.82 108 1.83 140 1.83 106 1.86
   2  0.411  0.625  0.604-  85 1.83  72 1.83 157 1.83 121 1.86
   3  0.589  0.625  0.896-  86 1.83  71 1.83 158 1.83 136 1.86
   4  0.160  0.625  0.656-  78 1.93  80 1.94 149 1.94 121 2.01  75 2.07 154 2.08
   5  0.841  0.625  0.844-  77 1.93  79 1.94 150 1.94 136 2.01  76 2.07 153 2.08
   6  0.910  0.500  0.604-  90 1.83 118 1.83  78 1.83  76 1.86
   7  0.090  0.500  0.896-  68 1.82 117 1.83  77 1.83  75 1.86
   8  0.841  0.375  0.844- 117 1.93  79 1.94 119 1.94  65 2.01  76 2.07 116 2.08
   9  0.911  0.250  0.604- 131 1.83  97 1.83 118 1.83 116 1.86
  10  0.089  0.250  0.896- 132 1.83 117 1.83  96 1.83  93 1.86
  11  0.840  0.625  0.344-  89 1.93  90 1.94 138 1.94  81 2.01  88 2.07 141 2.08
  12  0.660  1.000  0.656- 114 1.93 102 1.93 155 1.93  95 2.01 160 2.07 133 2.07
  13  0.160  0.625  0.156-  70 1.93  68 1.93 137 1.94  82 2.01  87 2.07 142 2.08
  14  0.088  0.250  0.396- 120 1.83 129 1.83 108 1.83 127 1.86
  15  0.911  0.250  0.104- 119 1.83 130 1.83 109 1.83 128 1.86
  16  0.841  0.375  0.344- 129 1.93  90 1.94 131 1.94  92 2.01  88 2.07 128 2.08
  17  0.160  0.375  0.156- 130 1.93  68 1.94 132 1.94 122 2.00 127 2.07  87 2.08
  18  0.591  0.376  0.397- 135 1.82 123 1.83  83 1.83  92 1.86
  19  0.411  0.376  0.104-  91 1.83  69 1.83 124 1.83 122 1.86
  20  0.660  0.250  0.155- 124 1.94 126 1.94 105 1.94 128 2.01  92 2.08 100 2.08
  21  0.411  0.625  0.104-  73 1.83  69 1.83 145 1.83  82 1.86
  22  0.341  0.501  0.343-  83 1.93  85 1.93 125 1.94  87 2.01  82 2.06 122 2.06
  23  0.589  0.625  0.396-  74 1.83  83 1.83 146 1.83  81 1.86
  24  0.341  0.000  0.844- 115 1.93 156 1.93 113 1.93  94 2.01 134 2.07 159 2.07
  25  0.411  0.124  0.605- 114 1.83 104 1.83  84 1.83 134 1.86
  26  0.589  0.125  0.896- 105 1.83 115 1.83  67 1.83 133 1.86
  27  0.910  1.000  0.104-  98 1.82 109 1.83 139 1.83 107 1.86
  28  0.841  0.125  0.344- 108 1.93 110 1.94 131 1.94 100 2.01 107 2.07 128 2.08
  29  0.159  0.125  0.155- 109 1.93 111 1.94 132 1.94 101 2.01 127 2.07 106 2.08
  30  0.591  0.124  0.397- 102 1.82 123 1.83 103 1.83 100 1.86
  31  0.411  0.125  0.104- 113 1.83 112 1.83 124 1.83 101 1.86
  32  0.341  0.999  0.343- 144 1.93 103 1.93 104 1.94 106 2.01 147 2.06 101 2.06
  33  0.660  0.000  0.156- 112 1.93 143 1.93 105 1.93 107 2.01 100 2.07 148 2.07
  34  0.090  0.500  0.396-  80 1.82 129 1.83  89 1.83  87 1.86
  35  0.660  0.500  0.156-  69 1.93  86 1.93 126 1.93  88 2.01  92 2.07  81 2.07
  36  0.660  0.250  0.656-  84 1.94 102 1.94 135 1.94 116 2.01 133 2.08  65 2.08
  37  0.910  0.500  0.104-  79 1.82 130 1.83  70 1.83  88 1.86
  38  0.411  0.376  0.605-  72 1.83 125 1.83  84 1.83  66 1.86
  39  0.589  0.375  0.896- 126 1.83  71 1.83  67 1.83  65 1.86
  40  0.160  0.375  0.656- 118 1.93  80 1.94 120 1.94  66 2.01  75 2.07  93 2.08
  41  0.660  0.500  0.656-  72 1.93 135 1.93  74 1.93  76 2.01 136 2.07  65 2.07
  42  0.341  0.500  0.844-  71 1.93  91 1.93  73 1.93  75 2.01  66 2.07 121 2.07
  43  0.090  1.000  0.896- 111 1.83  96 1.83 152 1.83  94 1.86
  44  0.910  0.000  0.604- 110 1.83  97 1.83 151 1.83  95 1.86
  45  0.841  0.125  0.844-  96 1.93  98 1.94 119 1.94 133 2.01  95 2.07 116 2.08
  46  0.160  0.125  0.656-  97 1.93  99 1.94 120 1.94 134 2.01  94 2.07  93 2.08
  47  0.340  0.250  0.845-  67 1.93 113 1.94  91 1.94  93 2.01  66 2.08 134 2.08
  48  0.089  0.750  0.396- 149 1.83  89 1.83 140 1.83 142 1.86
  49  0.911  0.750  0.104- 150 1.83 139 1.83  70 1.83 141 1.86
  50  0.840  0.875  0.344- 140 1.93 110 1.94 138 1.94 148 2.01 107 2.07 141 2.08
  51  0.159  0.875  0.156- 139 1.93 111 1.93 137 1.94 147 2.01 106 2.07 142 2.08
  52  0.589  0.875  0.396- 155 1.83 103 1.83 146 1.83 148 1.86
  53  0.411  0.875  0.104- 156 1.83 112 1.83 145 1.83 147 1.86
  54  0.340  0.750  0.345- 146 1.93  85 1.94 144 1.94 142 2.01 147 2.08  82 2.08
  55  0.660  0.750  0.155- 145 1.93  86 1.94 143 1.94 141 2.01 148 2.08  81 2.08
  56  0.089  0.750  0.896- 137 1.83  77 1.83 152 1.83 154 1.86
  57  0.911  0.750  0.604- 138 1.83 151 1.83  78 1.83 153 1.86
  58  0.841  0.875  0.844- 152 1.93  98 1.94 150 1.94 160 2.01  95 2.07 153 2.08
  59  0.160  0.875  0.656- 151 1.93  99 1.94 149 1.94 159 2.01  94 2.07 154 2.08
  60  0.589  0.875  0.896- 143 1.83 115 1.83 158 1.83 160 1.86
  61  0.411  0.875  0.604- 144 1.83 114 1.83 157 1.83 159 1.86
  62  0.340  0.750  0.845- 158 1.93  73 1.94 156 1.94 154 2.01 159 2.08 121 2.08
  63  0.660  0.750  0.655- 157 1.93  74 1.94 155 1.94 153 2.01 160 2.08 136 2.08
  64  0.341  0.250  0.346- 123 1.96 104 1.96 125 1.96 127 2.05 101 2.12 122 2.12
  65  0.673  0.375  0.781-  39 1.86   8 2.01  41 2.07  36 2.08
  66  0.328  0.375  0.720-  38 1.86  40 2.01  42 2.07  47 2.08
  67  0.503  0.250  0.872-  39 1.83  26 1.83  47 1.93
  68  0.164  0.500  0.053-   7 1.82  13 1.93  17 1.94
  69  0.498  0.500  0.128-  21 1.83  19 1.83  35 1.93
  70  0.997  0.625  0.128-  37 1.83  49 1.83  13 1.93
  71  0.503  0.500  0.872-   3 1.83  39 1.83  42 1.93
  72  0.498  0.500  0.628-  38 1.83   2 1.83  41 1.93
  73  0.336  0.625  0.947-  21 1.83  42 1.93  62 1.94
  74  0.664  0.624  0.553-  23 1.83  41 1.93  63 1.94
  75  0.172  0.500  0.780-   7 1.86  42 2.01   4 2.07  40 2.07
  76  0.828  0.500  0.719-   6 1.86  41 2.01   8 2.07   5 2.07
  77  0.003  0.625  0.872-   7 1.83  56 1.83   5 1.93
  78  0.997  0.624  0.628-   6 1.83  57 1.83   4 1.93
  79  0.836  0.500  0.947-  37 1.82   5 1.94   8 1.94
  80  0.164  0.500  0.553-  34 1.82   4 1.94  40 1.94
  81  0.672  0.625  0.281-  23 1.86  11 2.01  35 2.07  55 2.08
  82  0.328  0.625  0.219-  21 1.86  13 2.01  22 2.06  54 2.08
  83  0.503  0.500  0.372-  23 1.83  18 1.83  22 1.93
  84  0.497  0.250  0.627-  25 1.83  38 1.83  36 1.94
  85  0.336  0.625  0.447-   2 1.83  22 1.93  54 1.94
  86  0.664  0.625  0.053-   3 1.83  35 1.93  55 1.94
  87  0.172  0.500  0.280-  34 1.86  22 2.01  13 2.07  17 2.08
  88  0.828  0.500  0.219-  37 1.86  35 2.01  11 2.07  16 2.07
  89  0.003  0.625  0.372-  34 1.83  48 1.83  11 1.93
  90  0.836  0.500  0.447-   6 1.83  11 1.94  16 1.94
  91  0.336  0.376  0.947-  19 1.83  42 1.93  47 1.94
  92  0.673  0.376  0.280-  18 1.86  16 2.01  35 2.07  20 2.08
  93  0.172  0.250  0.781-  10 1.86  47 2.01  46 2.08  40 2.08
  94  0.172  1.000  0.781-  43 1.86  24 2.01  59 2.07  46 2.07
  95  0.828  1.000  0.720-  44 1.86  12 2.01  58 2.07  45 2.07
  96  0.003  0.124  0.872-  43 1.83  10 1.83  45 1.93
  97  0.997  0.124  0.628-  44 1.83   9 1.83  46 1.93
  98  0.836  1.000  0.947-  27 1.82  58 1.94  45 1.94
  99  0.164  1.000  0.553-   1 1.82  59 1.94  46 1.94
 100  0.673  0.125  0.280-  30 1.86  28 2.01  33 2.07  20 2.08
 101  0.327  0.123  0.218-  31 1.86  29 2.01  32 2.06  64 2.12
 102  0.665  0.124  0.553-  30 1.82  12 1.93  36 1.94
 103  0.503  0.000  0.372-  52 1.83  30 1.83  32 1.93
 104  0.336  0.122  0.449-  25 1.83  32 1.94  64 1.96
 105  0.664  0.125  0.053-  26 1.83  33 1.93  20 1.94
 106  0.172  1.000  0.281-   1 1.86  32 2.01  51 2.07  29 2.08
 107  0.828  1.000  0.219-  27 1.86  33 2.01  28 2.07  50 2.07
 108  0.003  0.124  0.372-   1 1.83  14 1.83  28 1.93
 109  0.997  0.124  0.127-  27 1.83  15 1.83  29 1.93
 110  0.836  0.000  0.447-  44 1.83  50 1.94  28 1.94
 111  0.164  1.000  0.053-  43 1.83  51 1.93  29 1.94
 112  0.497  0.000  0.128-  53 1.83  31 1.83  33 1.93
 113  0.336  0.124  0.947-  31 1.83  24 1.93  47 1.94
 114  0.498  1.000  0.628-  25 1.83  61 1.83  12 1.93
 115  0.503  0.000  0.872-  60 1.83  26 1.83  24 1.93
 116  0.828  0.250  0.719-   9 1.86  36 2.01  45 2.08   8 2.08
 117  0.003  0.376  0.872-   7 1.83  10 1.83   8 1.93
 118  0.997  0.376  0.628-   6 1.83   9 1.83  40 1.93
 119  0.836  0.250  0.947-  15 1.83   8 1.94  45 1.94
 120  0.164  0.250  0.553-  14 1.83  40 1.94  46 1.94
 121  0.328  0.625  0.719-   2 1.86   4 2.01  42 2.07  62 2.08
 122  0.327  0.377  0.218-  19 1.86  17 2.00  22 2.06  64 2.12
 123  0.506  0.250  0.373-  18 1.83  30 1.83  64 1.96
 124  0.497  0.250  0.128-  19 1.83  31 1.83  20 1.94
 125  0.336  0.378  0.448-  38 1.83  22 1.94  64 1.96
 126  0.664  0.376  0.053-  39 1.83  35 1.93  20 1.94
 127  0.170  0.250  0.279-  14 1.86  64 2.05  17 2.07  29 2.07
 128  0.828  0.250  0.219-  15 1.86  20 2.01  16 2.08  28 2.08
 129  0.003  0.376  0.372-  34 1.83  14 1.83  16 1.93
 130  0.997  0.376  0.127-  37 1.83  15 1.83  17 1.93
 131  0.836  0.250  0.447-   9 1.83  16 1.94  28 1.94
 132  0.164  0.250  0.053-  10 1.83  29 1.94  17 1.94
 133  0.672  0.125  0.781-  26 1.86  45 2.01  12 2.07  36 2.08
 134  0.328  0.125  0.720-  25 1.86  46 2.01  24 2.07  47 2.08
 135  0.665  0.376  0.553-  18 1.82  41 1.93  36 1.94
 136  0.673  0.625  0.781-   3 1.86   5 2.01  41 2.07  63 2.08
 137  0.164  0.750  0.053-  56 1.83  51 1.94  13 1.94
 138  0.836  0.750  0.447-  57 1.83  11 1.94  50 1.94
 139  0.997  0.876  0.128-  27 1.83  49 1.83  51 1.93
 140  0.003  0.876  0.372-   1 1.83  48 1.83  50 1.93
 141  0.828  0.750  0.219-  49 1.86  55 2.01  50 2.08  11 2.08
 142  0.172  0.750  0.281-  48 1.86  54 2.01  51 2.08  13 2.08
 143  0.664  0.876  0.053-  60 1.83  33 1.93  55 1.94
 144  0.336  0.876  0.447-  61 1.83  32 1.93  54 1.94
 145  0.497  0.750  0.128-  53 1.83  21 1.83  55 1.93
 146  0.503  0.750  0.372-  52 1.83  23 1.83  54 1.93
 147  0.328  0.875  0.219-  53 1.86  51 2.01  32 2.06  54 2.08
 148  0.673  0.876  0.281-  52 1.86  50 2.01  33 2.07  55 2.08
 149  0.164  0.750  0.553-  48 1.83  59 1.94   4 1.94
 150  0.836  0.750  0.947-  49 1.83  58 1.94   5 1.94
 151  0.997  0.876  0.628-  44 1.83  57 1.83  59 1.93
 152  0.003  0.876  0.872-  43 1.83  56 1.83  58 1.93
 153  0.828  0.750  0.719-  57 1.86  63 2.01   5 2.08  58 2.08
 154  0.173  0.750  0.781-  56 1.86  62 2.01  59 2.08   4 2.08
 155  0.664  0.876  0.553-  52 1.83  12 1.93  63 1.94
 156  0.336  0.876  0.947-  53 1.83  24 1.93  62 1.94
 157  0.497  0.750  0.628-  61 1.83   2 1.83  63 1.93
 158  0.503  0.750  0.872-  60 1.83   3 1.83  62 1.93
 159  0.328  0.876  0.719-  61 1.86  59 2.01  24 2.07  62 2.08
 160  0.673  0.875  0.781-  60 1.86  58 2.01  12 2.07  63 2.08
 
  LATTYP: Found a simple monoclinic cell.
 ALAT       =    14.6889751464
 B/A-ratio  =     0.8259161174
 C/A-ratio  =     1.5972413798
 COS(beta)  =    -0.9171837574
  
  Lattice vectors:
  
 A1 = ( -11.8609006218,   0.0000000000,  -8.6651617002)
 A2 = (   0.0000000000, -12.1318613217,   0.0000000000)
 A3 = (  11.8609006218,   0.0000000000,  20.2429474736)


Analysis of symmetry for initial positions (statically):
=====================================================================
 Subroutine PRICEL returns:
 Original cell was already a primitive cell.
 

 Routine SETGRP: Setting up the symmetry group for a 
 simple monoclinic supercell.


 Subroutine GETGRP returns: Found  1 space group operations
 (whereof  1 operations were pure point group operations)
 out of a pool of  4 trial point group operations.


The static configuration has the point symmetry C_1 .


Analysis of symmetry for dynamics (positions and initial velocities):
=====================================================================
 Subroutine PRICEL returns:
 Original cell was already a primitive cell.
 

 Routine SETGRP: Setting up the symmetry group for a 
 simple monoclinic supercell.


 Subroutine GETGRP returns: Found  1 space group operations
 (whereof  1 operations were pure point group operations)
 out of a pool of  4 trial point group operations.


The dynamic configuration has the point symmetry C_1 .


Analysis of structural, dynamic, and magnetic symmetry:
=====================================================================
 Subroutine PRICEL returns:
 Original cell was already a primitive cell.
 

 Routine SETGRP: Setting up the symmetry group for a 
 simple monoclinic supercell.


 Subroutine GETGRP returns: Found  1 space group operations
 (whereof  1 operations were pure point group operations)
 out of a pool of  4 trial point group operations.


The magnetic configuration has the point symmetry C_1 .


 Subroutine INISYM returns: Found  1 space group operations
 (whereof  1 operations are pure point group operations),
 and found     1 'primitive' translations

 
 
 KPOINTS: KPOINTS created by Atomic Simulation Env
  k-points in reciprocal lattice
Space group operators:
 irot       det(A)        alpha          n_x          n_y          n_z        tau_x        tau_y        tau_z
    1     1.000000     0.000000     1.000000     0.000000     0.000000     0.000000     0.000000     0.000000

 ----------------------------------------------------------------------------- 
|                                                                             |
|           W    W    AA    RRRRR   N    N  II  N    N   GGGG   !!!           |
|           W    W   A  A   R    R  NN   N  II  NN   N  G    G  !!!           |
|           W    W  A    A  R    R  N N  N  II  N N  N  G       !!!           |
|           W WW W  AAAAAA  RRRRR   N  N N  II  N  N N  G  GGG   !            |
|           WW  WW  A    A  R   R   N   NN  II  N   NN  G    G                |
|           W    W  A    A  R    R  N    N  II  N    N   GGGG   !!!           |
|                                                                             |
|      Your generating k-point grid is not commensurate to the symmetry       |
|      of the lattice.  This can cause   slow convergence with respect        |
|      to k-points for HF type calculations                                   |
|      suggested SOLUTIONS:                                                   |
|       ) if not already the case, use automatic k-point generation           |
|       ) shift your grid to Gamma (G) (e.g. required for hex or fcc lattice) |
|                                                                             |
 ----------------------------------------------------------------------------- 

 
 Subroutine IBZKPT_HF returns following result:
 ==============================================
 
 Found      2 k-points in 1st BZ
 the following      2 k-points will be used (e.g. in the exchange kernel)
 Following reciprocal coordinates:   # in IRBZ
  0.250000  0.250000  0.250000    0.50000000   1 t-inv F
 -0.250000 -0.250000 -0.250000    0.50000000   1 t-inv T


--------------------------------------------------------------------------------------------------------




 Dimension of arrays:
   k-points           NKPTS =      1   k-points in BZ     NKDIM =      2   number of bands    NBANDS=    864
   number of dos      NEDOS =    301   number of ions     NIONS =    160
   non local maximal  LDIM  =      6   non local SUM 2l+1 LMDIM =     18
   total plane-waves  NPLWV = 216000
   max r-space proj   IRMAX =   1914   max aug-charges    IRDMAX=   5112
   dimension x,y,z NGX =    60 NGY =   60 NGZ =   60
   dimension x,y,z NGXF=   120 NGYF=  120 NGZF=  120
   support grid    NGXF=   120 NGYF=  120 NGZF=  120
   ions per type =              63   1  96
   NGX,Y,Z   is equivalent  to a cutoff of   8.17,  8.22,  8.62 a.u.
   NGXF,Y,Z  is equivalent  to a cutoff of  16.33, 16.44, 17.23 a.u.

 SYSTEM =  unknown system                          
 POSCAR =  Ga Fe  O                                

 Startparameter for this run:
   NWRITE =      2    write-flag & timer
   PREC   = normal    normal or accurate (medium, high low for compatibility)
   ISTART =      1    job   : 0-new  1-cont  2-samecut
   ICHARG =      0    charge: 1-file 2-atom 10-const
   ISPIN  =      2    spin polarized calculation?
   LNONCOLLINEAR =      F non collinear calculations
   LSORBIT =      F    spin-orbit coupling
   INIWAV =      1    electr: 0-lowe 1-rand  2-diag
   LASPH  =      T    aspherical Exc in radial PAW
   METAGGA=      F    non-selfconsistent MetaGGA calc.

 Electronic Relaxation 1
   ENCUT  =  400.0 eV  29.40 Ry    5.42 a.u.  19.92 19.78 18.88*2*pi/ulx,y,z
   ENINI  =  400.0     initial cutoff
   ENAUG  =  605.4 eV  augmentation charge cutoff
   NELM   =     40;   NELMIN=  2; NELMDL=  0     # of ELM steps 
   EDIFF  = 0.1E-03   stopping-criterion for ELM
   LREAL  =      T    real-space projection
   NLSPLINE    = F    spline interpolate recip. space projectors
   LCOMPAT=      F    compatible to vasp.4.4
   GGA_COMPAT  = T    GGA compatible to vasp.4.4-vasp.4.6
   LMAXPAW     = -100 max onsite density
   LMAXMIX     =    2 max onsite mixed and CHGCAR
   VOSKOWN=      0    Vosko Wilk Nusair interpolation
   ROPT   =   -0.00050  -0.00050  -0.00050
 Ionic relaxation
   EDIFFG = 0.1E-02   stopping-criterion for IOM
   NSW    =     45    number of steps for IOM
   NBLOCK =      1;   KBLOCK =     45    inner block; outer block 
   IBRION =      2    ionic relax: 0-MD 1-quasi-New 2-CG
   NFREE  =      1    steps in history (QN), initial steepest desc. (CG)
   ISIF   =      0    stress and relaxation
   IWAVPR =     11    prediction:  0-non 1-charg 2-wave 3-comb
   ISYM   =      3    0-nonsym 1-usesym 2-fastsym
   LCORR  =      T    Harris-Foulkes like correction to forces

   POTIM  = 0.3500    time-step for ionic-motion
   TEIN   =    0.0    initial temperature
   TEBEG  =    0.0;   TEEND  =   0.0 temperature during run
   SMASS  =  -3.00    Nose mass-parameter (am)
   estimated Nose-frequenzy (Omega)   =  0.10E-29 period in steps =****** mass=  -0.341E-26a.u.
   SCALEE = 1.0000    scale energy and forces
   NPACO  =    256;   APACO  = 16.0  distance and # of slots for P.C.
   PSTRESS=    0.0 pullay stress

  Mass of Ions in am
   POMASS =  69.72 55.85 16.00
  Ionic Valenz
   ZVAL   =  13.00 14.00  6.00
  Atomic Wigner-Seitz radii
   RWIGS  =  -1.00 -1.00 -1.00
  virtual crystal weights 
   VCA    =   1.00  1.00  1.00
   NELECT =    1409.0000    total number of electrons
   NUPDOWN=       5.0000    fix difference up-down

 DOS related values:
   EMIN   =  10.00;   EMAX   =-10.00  energy-range for DOS
   EFERMI =   0.00
   ISMEAR =     0;   SIGMA  =   0.05  broadening in eV -4-tet -1-fermi 0-gaus

 Electronic relaxation 2 (details)
   IALGO  =     58    algorithm
   LDIAG  =      T    sub-space diagonalisation (order eigenvalues)
   LSUBROT=      F    optimize rotation matrix (better conditioning)
   TURBO    =      0    0=normal 1=particle mesh
   IRESTART =      0    0=no restart 2=restart with 2 vectors
   NREBOOT  =      0    no. of reboots
   NMIN     =      0    reboot dimension
   EREF     =   0.00    reference energy to select bands
   IMIX   =      4    mixing-type and parameters
     AMIX     =   0.40;   BMIX     =  1.00
     AMIX_MAG =   1.60;   BMIX_MAG =  1.00
     AMIN     =   0.10
     WC   =   100.;   INIMIX=   1;  MIXPRE=   1;  MAXMIX= -45

 Intra band minimization:
   WEIMIN = 0.0010     energy-eigenvalue tresh-hold
   EBREAK =  0.29E-07  absolut break condition
   DEPER  =   0.30     relativ break condition  

   TIME   =   0.40     timestep for ELM

  volume/ion in A,a.u.               =      10.41        70.27
  Fermi-wavevector in a.u.,A,eV,Ry     =   1.548181  2.925637 32.611304  2.396863
  Thomas-Fermi vector in A             =   2.653168
 
 Write flags
   LWAVE        =      T    write WAVECAR
   LDOWNSAMPLE  =      F    k-point downsampling of WAVECAR
   LCHARG       =      F    write CHGCAR
   LVTOT        =      F    write LOCPOT, total local potential
   LVHAR        =      T    write LOCPOT, Hartree potential only
   LELF         =      F    write electronic localiz. function (ELF)
   LORBIT       =     10    0 simple, 1 ext, 2 COOP (PROOUT), +10 PAW based schemes


 Dipole corrections
   LMONO  =      F    monopole corrections only (constant potential shift)
   LDIPOL =      F    correct potential (dipole corrections)
   IDIPOL =      0    1-x, 2-y, 3-z, 4-all directions 
   EPSILON=  1.0000000 bulk dielectric constant

 Exchange correlation treatment:
   GGA     =    --    GGA type
   LEXCH   =     8    internal setting for exchange type
   VOSKOWN=      0    Vosko Wilk Nusair interpolation
   EXXOEP  =     0    0=HF, 1=EXX-LHF (local Hartree Fock) 2=EXX OEP
   LHFCALC =     T    Hartree Fock is set to
   LSYMGRAD=     F    symmetrize gradient (conserves proper symmetry)
   PRECFOCK=fast      Normal, Fast or Accurate (Low or Medium for compatibility)
   LRHFCALC=     F    long range Hartree Fock
   LRSCOR  =     F    long range correlation only (use DFT for short range part)
   LTHOMAS =     F    Thomas Fermi screening in HF
   LMODELHF=     F    short range full HF, long range fraction AEXX
   ENCUT4O =  -1.0   cutoff for four orbital integrals eV
   LMAXFOCK=     4    L truncation for augmentation on plane wave grid
   LMAXFOCKAE=  -1    L truncation for all-electron charge restoration on plane wave grid
   NMAXFOCKAE=   1    number of basis functions for all-electron charge restoration
   LFOCKAEDFT=     F  apply the AE augmentation even for DFT
   NKREDX  =     1    reduce k-point grid by
   NKREDY  =     1    reduce k-point grid by
   NKREDZ  =     1    reduce k-point grid by
   SHIFTRED=     F    shift reduced grid of Gamma
   HFKIDENT=     F    idential grid for each k-point
   ODDONLY =     F    use only odd q-grid points
   EVENONLY=     F    use only even q-grid points
   HFALPHA =   -1.0000 decay constant for conv. correction
   MCALPHA =    0.0000 extent of test-charge in conv. correction in multipole expansion
   AEXX    =    0.3200 exact exchange contribution
   HFSCREEN=    0.2000 screening length (either q_TF or 0.3 A-1)
   HFSCREENC=   0.2000 screening length for correlation (either q_TF or 0.3 A-1)
   HFRCUT  =    0.0000 spherical cutoff for potential kernel
   ALDAX   =    0.6800 LDA exchange part
   AGGAX   =    0.6800 GGA exchange part
   ALDAC   =    1.0000 LDA correlation
   AGGAC   =    1.0000 GGA correlation
   ENCUTFOCK=  -1.0 apply spherical cutoff to Coloumb kernel
   NBANDSGWLOW=     1    first orbital included in HF term
   NBLOCK_FOCK=    64    blocking factor in FOCK_ACC
 Linear response parameters
   LEPSILON=     F    determine dielectric tensor
   LRPA    =     F    only Hartree local field effects (RPA)
   LNABLA  =     F    use nabla operator in PAW spheres
   LVEL    =     F    velocity operator in full k-point grid
   LINTERFAST=   F  fast interpolation
   KINTER  =     0    interpolate to denser k-point grid
   CSHIFT  =0.1000    complex shift for real part using Kramers Kronig
   OMEGAMAX=  -1.0    maximum frequency
   DEG_THRESHOLD= 0.2000000E-02 threshold for treating states as degnerate
   RTIME   =   -0.100 relaxation time in fs
  (WPLASMAI=    0.000 imaginary part of plasma frequency in eV, 0.658/RTIME)
   DFIELD  = 0.0000000 0.0000000 0.0000000 field for delta impulse in time
 
 Orbital magnetization related:
   ORBITALMAG=     F  switch on orbital magnetization
   LCHIMAG   =     F  perturbation theory with respect to B field
   DQ        =  0.001000  dq finite difference perturbation B field
   LLRAUG    =     F  two centre corrections for induced B field



--------------------------------------------------------------------------------------------------------


 conjugate gradient relaxation of ions
 charge density and potential will be updated during run
 spin polarized calculation
 Conjugate gradient for all bands (Freysoldt, et al. PRB 79, 241103 (2009))
 preconditioned conjugated gradient                                        
 perform sub-space diagonalisation
    before iterative eigenvector-optimisation
 modified Broyden-mixing scheme, WC =      100.0
 initial mixing is a Kerker type mixing with AMIX =  0.4000 and BMIX =      1.0000
 Hartree-type preconditioning will be used
 using additional bands          159
 real space projection scheme for non local part
 use partial core corrections
 no Harris-corrections to forces 
 use gradient corrections 
 use of overlap-Matrix (Vanderbilt PP)
 Gauss-broadening in eV      SIGMA  =   0.05


--------------------------------------------------------------------------------------------------------


  energy-cutoff  :      400.00
  volume of cell :     1665.98
      direct lattice vectors                 reciprocal lattice vectors
    11.860900622  0.000000000 -2.912624073     0.084310630  0.000000000  0.000000000
     0.000000000 12.131861322  0.000000000     0.000000000  0.082427583  0.000000000
     0.000000000  0.000000000 11.577785773     0.021210029  0.000000000  0.086372301

  length of vectors
    12.213285494 12.131861322 11.577785773     0.084310630  0.082427583  0.088938404


 
 old parameters found on file WAVECAR:
  energy-cutoff  :      400.00
  volume of cell :     1665.98
      direct lattice vectors                 reciprocal lattice vectors
    11.860900622  0.000000000 -2.912624073     0.084310630  0.000000000  0.000000000
     0.000000000 12.131861322  0.000000000     0.000000000  0.082427583  0.000000000
     0.000000000  0.000000000 11.577785773     0.021210029  0.000000000  0.086372301

  length of vectors

 
 k-points in units of 2pi/SCALE and weight: KPOINTS created by Atomic Simulation Env
   0.02638016  0.02060690  0.02159308       1.000
 
 k-points in reciprocal lattice and weights: KPOINTS created by Atomic Simulation Env
   0.25000000  0.25000000  0.25000000       1.000
 
 position of ions in fractional coordinates (direct lattice) 
   0.08997749  0.99993009  0.39628558
   0.41087359  0.62505279  0.60381070
   0.58930432  0.62503081  0.89608275
   0.15969704  0.62491402  0.65574935
   0.84052361  0.62493684  0.84422375
   0.91032866  0.50002722  0.60380152
   0.08974416  0.50007845  0.89598683
   0.84060574  0.37526103  0.84419341
   0.91135032  0.25004568  0.60393707
   0.08878035  0.25003498  0.89586540
   0.84048275  0.62489004  0.34423860
   0.65984125  0.99985385  0.65643293
   0.15959653  0.62489868  0.15563913
   0.08814184  0.25007097  0.39577482
   0.91148769  0.25008637  0.10379442
   0.84073961  0.37534049  0.34404780
   0.15951154  0.37530908  0.15550980
   0.59097010  0.37579757  0.39653999
   0.41076994  0.37552165  0.10371812
   0.65976189  0.25032692  0.15526376
   0.41096759  0.62503650  0.10380247
   0.34068293  0.50086452  0.34328438
   0.58934055  0.62509653  0.39617601
   0.34052680  0.00000219  0.84391686
   0.41131433  0.12447295  0.60517504
   0.58933741  0.12507130  0.89607686
   0.91012932  0.99990411  0.10359056
   0.84071553  0.12484255  0.34400657
   0.15930794  0.12484039  0.15545362
   0.59107655  0.12442940  0.39655028
   0.41082488  0.12477932  0.10368960
   0.34066394  0.99935728  0.34326221
   0.65971134  0.00017235  0.15598901
   0.09002400  0.50018492  0.39623154
   0.65972600  0.50039419  0.15600181
   0.65996792  0.25005162  0.65553795
   0.91024430  0.50017756  0.10363694
   0.41120778  0.37574690  0.60498952
   0.58937770  0.37530598  0.89606889
   0.15964347  0.37525868  0.65568527
   0.65985969  0.50025688  0.65641431
   0.34052684  0.50014294  0.84392438
   0.08971307  0.99999084  0.89602797
   0.91023794  0.00003860  0.60377455
   0.84055986  0.12489756  0.84420380
   0.15959140  0.12488230  0.65568279
   0.34028620  0.25007696  0.84477402
   0.08877603  0.75006657  0.39604952
   0.91125468  0.75006270  0.10393777
   0.84048032  0.87524476  0.34426548
   0.15949569  0.87525495  0.15567536
   0.58939180  0.87524908  0.39621364
   0.41089920  0.87529759  0.10380292
   0.34039490  0.75030783  0.34453551
   0.65977373  0.75032473  0.15545318
   0.08883396  0.75003488  0.89602396
   0.91128399  0.75003834  0.60397635
   0.84054005  0.87518339  0.84420923
   0.15959166  0.87524492  0.65583731
   0.58941018  0.87535079  0.89610495
   0.41075635  0.87523471  0.60384408
   0.34047340  0.75009532  0.84455409
   0.65974000  0.75005959  0.65542152
   0.34125233  0.25001031  0.34627124
   0.67251065  0.37545251  0.78080406
   0.32767268  0.37547439  0.71951947
   0.50285288  0.25021897  0.87213171
   0.16405709  0.50026736  0.05270352
   0.49751117  0.50025935  0.12770081
   0.99723863  0.62456706  0.12764806
   0.50290512  0.50015273  0.87216738
   0.49761173  0.50040446  0.62824573
   0.33610682  0.62452546  0.94715030
   0.66406517  0.62449451  0.55286597
   0.17243448  0.50013502  0.78048614
   0.82783504  0.50011154  0.71949431
   0.00285729  0.62455420  0.87208075
   0.99727028  0.62448657  0.62761897
   0.83577676  0.50014847  0.94706265
   0.16432608  0.50014791  0.55286853
   0.67249421  0.62470388  0.28079018
   0.32777896  0.62492810  0.21914697
   0.50319393  0.49994004  0.37230054
   0.49707627  0.25012411  0.62720228
   0.33619190  0.62489724  0.44699735
   0.66412002  0.62473103  0.05289727
   0.17237862  0.50033588  0.28048784
   0.82777819  0.50026652  0.21939639
   0.00287855  0.62451334  0.37226982
   0.83565646  0.50005235  0.44705959
   0.33602543  0.37577291  0.94713162
   0.67295063  0.37581482  0.28041617
   0.17242982  0.25004546  0.78075009
   0.17239947  0.99997916  0.78051439
   0.82780515  0.99995066  0.71950545
   0.00291024  0.12441387  0.87204007
   0.99721409  0.12442192  0.62760809
   0.83570511  0.99999942  0.94703937
   0.16425140  0.99998464  0.55291947
   0.67294347  0.12450085  0.28039800
   0.32726559  0.12273515  0.21830079
   0.66460252  0.12414448  0.55333184
   0.50316279  0.00033779  0.37231516
   0.33562842  0.12240548  0.44861411
   0.66410903  0.12472990  0.05287018
   0.17236070  0.99998754  0.28052431
   0.82774188  0.99998642  0.21939972
   0.00281199  0.12417743  0.37239198
   0.99699417  0.12424332  0.12725697
   0.83559610  0.00008848  0.44702465
   0.16401093  0.99984878  0.05276360
   0.49747428  0.00002585  0.12771555
   0.33602271  0.12437382  0.94710319
   0.49759146  0.99978474  0.62822399
   0.50290781  0.00012752  0.87218142
   0.82776243  0.25004767  0.71903510
   0.00293070  0.37566126  0.87202506
   0.99726157  0.37565384  0.62763616
   0.83649168  0.25012830  0.94708001
   0.16377216  0.25008111  0.55251416
   0.32776941  0.62462032  0.71918204
   0.32726639  0.37744080  0.21827131
   0.50588147  0.25008358  0.37314888
   0.49709847  0.25018092  0.12786943
   0.33572307  0.37777062  0.44845019
   0.66412447  0.37589011  0.05285978
   0.16997460  0.25008516  0.27937196
   0.82784496  0.25016994  0.21901007
   0.00280210  0.37595628  0.37233513
   0.99709650  0.37585851  0.12731237
   0.83634017  0.25009139  0.44695860
   0.16401524  0.25002569  0.05264228
   0.67246512  0.12472388  0.78079327
   0.32766013  0.12456715  0.71954891
   0.66457864  0.37593841  0.55329399
   0.67252414  0.62468226  0.78084008
   0.16391108  0.75010422  0.05288453
   0.83626533  0.75005486  0.44709627
   0.99719430  0.87556022  0.12776174
   0.00283680  0.87560764  0.37231305
   0.82760559  0.75010943  0.21909241
   0.17244926  0.75021447  0.28087636
   0.66422433  0.87590462  0.05289701
   0.33607312  0.87574025  0.44703400
   0.49730207  0.75024478  0.12766272
   0.50292864  0.75023229  0.37227965
   0.32776164  0.87539649  0.21921766
   0.67250781  0.87559458  0.28078320
   0.16391740  0.75013855  0.55281122
   0.83629481  0.75008017  0.94718553
   0.99720076  0.87558826  0.62769898
   0.00284183  0.87550860  0.87218858
   0.82761841  0.74998380  0.71904675
   0.17252805  0.75007546  0.78091571
   0.66414774  0.87564481  0.55285989
   0.33603130  0.87569298  0.94717945
   0.49722212  0.75022598  0.62764114
   0.50296138  0.75026485  0.87238378
   0.32770694  0.87550979  0.71922649
   0.67256248  0.87544126  0.78083725
 
 position of ions in cartesian coordinates  (Angst):
   1.06721408 12.13101316  4.32603896
   4.87333076  7.58305378  5.79407066
   6.98968000  7.58278714  8.65823217
   1.89415067  7.58137019  7.12698802
   9.96936700  7.58164704  7.32611245
  10.79731780  6.06626092  4.33923942
   1.06444658  6.06688244 10.11215254
   9.97034119  4.55261473  7.32552195
  10.80943562  3.03351952  4.33783317
   1.05301490  3.03338974 10.11355388
   9.96888239  7.58107934  1.53751045
   7.82631150 12.13008827  5.67817034
   1.89295856  7.58118414  1.33711185
   1.04544158  3.03382632  4.32547202
  10.81106487  3.03401310 -1.45311141
   9.97192902  4.55357879  1.53455323
   1.89195050  4.55319769  1.33586200
   7.00943761  4.55912405  2.86978127
   4.87210147  4.55577662  0.00440776
   7.82537016  3.03693142 -0.12402784
   4.87444569  7.58285610  0.00480869
   4.04080643  6.07641888  2.98219167
   6.99010965  7.58358441  2.87031347
   4.03895458  0.00002658  8.77886204
   4.87855844  1.51008857  5.80858299
   6.99007247  1.51734770  8.65806760
  10.79495341 12.13069796 -1.45151529
   9.97164336  1.51457254  1.53414607
   1.88953567  1.51454635  1.33580451
   7.01070017  1.50956027  2.86959047
   4.87275308  1.51380540  0.00391752
   4.04058109 12.12406397  2.98199035
   7.82477059  0.00209088 -0.11548376
   1.06776573  6.06817410  4.32527782
   7.82494458  6.07071296 -0.11537826
   7.82781395  3.03359152  5.66743952
  10.79631715  6.06808474 -1.45131317
   4.87729465  4.55850929  5.80674541
   6.99055035  4.55316006  8.65785802
   1.89351531  4.55258621  7.12640219
   7.82653021  6.06904707  5.67790106
   4.03895506  6.06766479  8.77894901
   1.06407780 12.13175014 10.11271947
  10.79624177  0.00046834  4.33919148
   9.96979693  1.51523983  7.32577589
   1.89289772  1.51505469  7.12652518
   4.03610085  3.03389901  8.78948680
   1.05296372  9.09970355  4.32680529
  10.80830117  9.09965667 -1.45077312
   9.96885357 10.61834800  1.53782876
   1.89176250 10.61847167  1.33782500
   6.99071758 10.61840041  2.87059989
   4.87363455 10.61898903  0.00501308
   4.03739008  9.10263055  2.99751599
   7.82551067  9.10283556 -0.12186923
   1.05365076  9.09931913 10.11523349
  10.80864888  9.09936107  4.33848109
   9.96956196 10.61760354  7.32589649
   1.89290082 10.61834999  7.12831336
   6.99093560 10.61963441  8.65818086
   4.87194026 10.61822618  5.79479852
   4.03832113  9.10005235  8.78639533
   7.82511055  9.09961891  5.66675540
   4.04755997  3.03309042  3.01511450
   7.97658195  4.55493777  7.08121147
   3.88649305  4.55520327  7.37605492
   5.96428802  3.03562182  8.63273271
   1.94586485  6.06917426  0.13235346
   5.90093058  6.06907703  0.02942960
  11.82814829  7.57716092 -1.42669940
   5.96490768  6.06778358  8.63299354
   5.90212324  6.07083748  5.82433859
   3.98652954  7.57665628  9.98695052
   7.87641104  7.57628079  4.46679154
   2.04522820  6.06756871  8.53406456
   9.81886909  6.06728391  5.91897875
   0.03389001  7.57700500 10.08844192
  11.82852370  7.57618452  4.36176461
   9.91306507  6.06773184  8.53058493
   1.94905527  6.06772504  5.92237328
   7.97638697  7.57882090  1.29220576
   3.88775372  7.58154110  1.58253975
   5.96833320  6.06520326  2.84480112
   5.89577223  3.03447096  5.81381738
   3.98753873  7.58116666  4.19603888
   7.87706159  7.57915025 -1.32189875
   2.04456568  6.07000554  2.74535403
   9.81819486  6.06916402  0.12911774
   0.03414223  7.57650926  4.30167610
   9.91163819  6.06656578  2.74200699
   3.98556425  4.55882482  9.98697125
   7.98180054  4.55933324  1.28654612
   2.04517297  3.03351687  8.53713407
   2.04481299 12.13160854  8.53449351
   9.81851466 12.13126269  5.91919471
   0.03451805  1.50937186 10.08781670
  11.82785723  1.50946945  4.36180222
   9.91221521 12.13185423  8.53052408
   1.94816948 12.13167492  5.92318064
   7.98171566  1.51042709  1.28635665
   3.88166465  1.48900583  1.57423814
   7.88278443  1.50610368  4.47062025
   5.96796381  0.00409797  2.84506111
   3.98085533  1.48500629  4.21639861
   7.87693118  1.51320588 -1.32218037
   2.04435309 12.13171016  2.74582851
   9.81776421 12.13169655  0.12926202
   0.03335279  1.50650336  4.30328429
  11.82524875  1.50730278 -1.43051533
   9.91092231  0.00107348  2.74177833
   1.94531731 12.13002675  0.13318351
   5.90049302  0.00031364  0.02970771
   3.98553201  1.50888593  9.98665003
   5.90188289 12.12924986  5.82414592
   5.96493955  0.00154702  8.63314825
   9.81800787  3.03354360  5.91387361
   0.03476080  4.55747025 10.08758330
  11.82842036  4.55738029  4.36198891
   9.92154469  3.03452180  8.52870362
   1.94248529  3.03394930  5.91988386
   3.88764041  7.57780705  7.37186651
   3.88167407  4.57905948  1.57389448
   6.00020988  3.03397931  2.84679520
   5.89603552  3.03516017  0.03258390
   3.98197800  4.58306077  4.21422511
   7.87711437  4.56024669 -1.32234578
   2.01605180  3.03399844  2.73943659
   9.81898678  3.03502697  0.12445053
   0.03323540  4.56104945  4.30265492
  11.82646252  4.55986330 -1.43017198
   9.91974760  3.03407402  2.73884646
   1.94536852  3.03327705  0.13176624
   7.97604197  1.51313285  7.08121911
   3.88634422  1.51123139  7.37643236
   7.88250119  4.56083262  4.47025158
   7.97674202  7.57855859  7.08158918
   1.94413302  9.10016036  0.13487435
   9.91885998  9.09956150  2.74065827
  11.82762248 10.62217512 -1.42525412
   0.03364699 10.62275040  4.30229815
   9.81614767  9.10022355  0.12610099
   2.04540356  9.10149793  2.74964644
   7.87829880 10.62635336 -1.32220555
   3.98612984 10.62435929  4.19680919
   5.89845038  9.10186558  0.02959769
   5.96518658  9.10171410  2.84533202
   3.88754821 10.62018886  1.58340865
   7.97654827 10.62259200  1.29208531
   1.94420799  9.10057692  5.92290008
   9.91920963  9.09986862  8.53049876
  11.82769915 10.62251539  4.36289340
   0.03370667 10.62154895 10.08973538
   9.81629969  9.09869948  5.91442794
   2.04633808  9.09981142  8.53876543
   7.87739038 10.62320143  4.46648068
   3.98563384 10.62378584  9.98750786
   5.89750210  9.10163755  5.81847359
   5.96557498  9.10210907  8.63533510
   3.88689948 10.62156341  7.37256306
   7.97719679 10.62073194  7.08144470
 


--------------------------------------------------------------------------------------------------------


 k-point  1 :   0.2500 0.2500 0.2500  plane waves:   30269

 maximum and minimum number of plane-waves per node :     30269    30269

 maximum number of plane-waves:     30269
 maximum index in each direction: 
   IXMAX=   19   IYMAX=   19   IZMAX=   18
   IXMIN=  -20   IYMIN=  -20   IZMIN=  -19


 serial   3D FFT for wavefunctions
 parallel 3D FFT for charge:
    minimum data exchange during FFTs selected (reduces bandwidth)


 FFT grid for exact exchange (Hartree Fock) 
  NGX = 42; NGY = 42; NGZ = 40

 
 Radii for the augmentation spheres in the non-local exchange
 for species   1 augmentation radius   1.277 (default was   1.031)
       energy cutoff for augmentation   1600.0
 for species   2 augmentation radius   1.215 (default was   0.950)
       energy cutoff for augmentation   1600.0
 for species   3 augmentation radius   0.820 (default was   0.722)
       energy cutoff for augmentation   1600.0
 Maximum index for augmentation-charges in exchange          380
  SETUP_FOCK is finished

 total amount of memory used by VASP MPI-rank0    98760. kBytes
=======================================================================

   base      :      30000. kBytes
   nonlr-proj:      34136. kBytes
   fftplans  :       1403. kBytes
   grid      :      18679. kBytes
   one-center:       4976. kBytes
   HF        :        194. kBytes
   wavefun   :       9372. kBytes
 
     INWAV:  cpu time    2.3732: real time    2.6786
 Broyden mixing: mesh for mixing (old mesh)
   NGX = 39   NGY = 39   NGZ = 37
  (NGX  =120   NGY  =120   NGZ  =120)
  gives a total of  56277 points

 charge density for first step will be calculated from the start-wavefunctions


--------------------------------------------------------------------------------------------------------


 Maximum index for non-local projection operator         1802
 Maximum index for augmentation-charges          168 (set IRDMAX)


--------------------------------------------------------------------------------------------------------


 initial charge from wavefunction
 First call to EWALD:  gamma=   0.150
 Maximum number of real-space cells 3x 3x 3
 Maximum number of reciprocal cells 3x 3x 3

    FEWALD:  cpu time    0.0085: real time    0.0085


--------------------------------------- Iteration      1(   1)  ---------------------------------------


    POTLOK:  cpu time    0.1017: real time    0.1032
    SETDIJ:  cpu time    1.7890: real time    1.7894
    TRIAL :  cpu time   79.0519: real time   79.2424
    CORREC:  cpu time   79.8590: real time   80.0355
    CHARGE:  cpu time    0.1329: real time    0.1329
    --------------------------------------------
      LOOP:  cpu time  160.9556: real time  161.3281

 eigenvalue-minimisations  :     0
 total energy-change (2. order) :-0.1520157E+04  (-0.1161503E-02)
 number of electron    1409.0004326 magnetization       4.9999982
 augmentation part      614.6366250 magnetization       3.5378729

 Free energy of the ion-electron system (eV)
  ---------------------------------------------------
  alpha Z        PSCENC =      9581.60805417
  Ewald energy   TEWEN  =   -119160.89236680
  -Hartree energ DENC   =    -45096.45416785
  -exchange      EXHF   =      5301.62492773
  -V(xc)+E(xc)   XCENC  =      4773.95720089
  PAW double counting   =    128253.71908831  -149890.02694546
  entropy T*S    EENTRO =        -0.00000000
  eigenvalues    EBANDS =    -13910.71621185
  atomic energy  EATOM  =    178627.02312980
  ---------------------------------------------------
  free energy    TOTEN  =     -1520.15729107 eV

  energy without entropy =    -1520.15729107  energy(sigma->0) =    -1520.15729107
  exchange ACFDT corr.  =         0.00000000  see jH, gK, PRB 81, 115126


--------------------------------------------------------------------------------------------------------




--------------------------------------- Iteration      1(   2)  ---------------------------------------


    POTLOK:  cpu time    0.0915: real time    0.0928
    SETDIJ:  cpu time    1.7792: real time    1.7793
    TRIAL :  cpu time   79.0338: real time   79.2062
    CORREC:  cpu time   79.7319: real time   79.9116
    CHARGE:  cpu time    0.1347: real time    0.1347
    --------------------------------------------
      LOOP:  cpu time  160.7751: real time  161.1415

 eigenvalue-minimisations  :     0
 total energy-change (2. order) :-0.1157959E-02  (-0.3414517E-03)
 number of electron    1409.0004326 magnetization       4.9999982
 augmentation part      614.6209898 magnetization       3.5377954

 Free energy of the ion-electron system (eV)
  ---------------------------------------------------
  alpha Z        PSCENC =      9581.60805417
  Ewald energy   TEWEN  =   -119160.89236680
  -Hartree energ DENC   =    -45099.51495439
  -exchange      EXHF   =      5301.79423179
  -V(xc)+E(xc)   XCENC  =      4774.09131887
  PAW double counting   =    128246.70436274  -149884.88042550
  entropy T*S    EENTRO =        -0.00000000
  eigenvalues    EBANDS =    -13906.09179971
  atomic energy  EATOM  =    178627.02312980
  ---------------------------------------------------
  free energy    TOTEN  =     -1520.15844902 eV

  energy without entropy =    -1520.15844902  energy(sigma->0) =    -1520.15844902
  exchange ACFDT corr.  =         0.00000000  see jH, gK, PRB 81, 115126


--------------------------------------------------------------------------------------------------------




--------------------------------------- Iteration      1(   3)  ---------------------------------------


    POTLOK:  cpu time    0.0913: real time    0.0925
    SETDIJ:  cpu time    1.7829: real time    1.7831
    TRIAL :  cpu time   78.8856: real time   79.0859
    CORREC:  cpu time   79.8606: real time   80.0345
    CHARGE:  cpu time    0.1343: real time    0.1343
    --------------------------------------------
      LOOP:  cpu time  160.7579: real time  161.1497

 eigenvalue-minimisations  :     0
 total energy-change (2. order) :-0.3411119E-03  (-0.9414696E-04)
 number of electron    1409.0004326 magnetization       4.9999982
 augmentation part      614.6213713 magnetization       3.5376763

 Free energy of the ion-electron system (eV)
  ---------------------------------------------------
  alpha Z        PSCENC =      9581.60805417
  Ewald energy   TEWEN  =   -119160.89236680
  -Hartree energ DENC   =    -45097.97854569
  -exchange      EXHF   =      5301.73837454
  -V(xc)+E(xc)   XCENC  =      4774.04199535
  PAW double counting   =    128240.67507872  -149877.14874253
  entropy T*S    EENTRO =        -0.00000000
  eigenvalues    EBANDS =    -13909.22576769
  atomic energy  EATOM  =    178627.02312980
  ---------------------------------------------------
  free energy    TOTEN  =     -1520.15879014 eV

  energy without entropy =    -1520.15879014  energy(sigma->0) =    -1520.15879014
  exchange ACFDT corr.  =         0.00000000  see jH, gK, PRB 81, 115126


--------------------------------------------------------------------------------------------------------




--------------------------------------- Iteration      1(   4)  ---------------------------------------


    POTLOK:  cpu time    0.0906: real time    0.0919
    SETDIJ:  cpu time    1.7830: real time    1.7832
    TRIAL :  cpu time   78.9245: real time   79.0921
    CORREC:  cpu time   79.9211: real time   80.1034
    EDDIAG:  cpu time   77.2704: real time   77.4260
    CHARGE:  cpu time    0.1379: real time    0.1379
    --------------------------------------------
      LOOP:  cpu time  238.1315: real time  238.6554

 eigenvalue-minimisations  :     0
 total energy-change (2. order) :-0.9409112E-04  (-0.2855166E-04)
 number of electron    1409.0004326 magnetization       4.9999982
 augmentation part      614.6225842 magnetization       3.5376138

 Free energy of the ion-electron system (eV)
  ---------------------------------------------------
  alpha Z        PSCENC =      9581.60805417
  Ewald energy   TEWEN  =   -119160.89236680
  -Hartree energ DENC   =    -45098.07027539
  -exchange      EXHF   =      5301.74122330
  -V(xc)+E(xc)   XCENC  =      4774.03695123
  PAW double counting   =    128240.25910424  -149877.11155160
  entropy T*S    EENTRO =        -0.00000000
  eigenvalues    EBANDS =    -13908.73527372
  atomic energy  EATOM  =    178627.02312980
  ---------------------------------------------------
  free energy    TOTEN  =     -1520.15888423 eV

  energy without entropy =    -1520.15888423  energy(sigma->0) =    -1520.15888423
  exchange ACFDT corr.  =         0.00000000  see jH, gK, PRB 81, 115126


--------------------------------------------------------------------------------------------------------


  average scaling for gradient   0.9377


 average (electrostatic) potential at core
  the test charge radii are     1.0314  0.9500  0.7215
  (the norm of the test charge is              1.0000)
       1 -20.1231       2 -20.1583       3 -20.1612       4 -20.1039       5 -20.1038
       6 -20.1415       7 -20.1344       8 -20.1118       9 -20.1802      10 -20.1759
      11 -20.0922      12 -20.0792      13 -20.0910      14 -20.1581      15 -20.1587
      16 -20.0933      17 -20.0756      18 -20.1451      19 -20.1358      20 -20.1331
      21 -20.1528      22 -20.0703      23 -20.1528      24 -20.0818      25 -20.1695
      26 -20.1665      27 -20.1221      28 -20.0951      29 -20.0719      30 -20.1447
      31 -20.1359      32 -20.0598      33 -20.0645      34 -20.1272      35 -20.0635
      36 -20.1539      37 -20.1215      38 -20.1734      39 -20.1636      40 -20.1169
      41 -20.0793      42 -20.0852      43 -20.1339      44 -20.1426      45 -20.1149
      46 -20.1158      47 -20.1437      48 -20.1583      49 -20.1581      50 -20.0918
      51 -20.0884      52 -20.1492      53 -20.1504      54 -20.1159      55 -20.1242
      56 -20.1692      57 -20.1694      58 -20.1044      59 -20.1006      60 -20.1588
      61 -20.1552      62 -20.1371      63 -20.1358      64 -41.1208      65 -63.6823
      66 -63.6939      67 -63.5398      68 -63.1692      69 -63.4861      70 -63.4954
      71 -63.5048      72 -63.5086      73 -63.2047      74 -63.2003      75 -63.6661
      76 -63.6697      77 -63.5092      78 -63.5070      79 -63.1866      80 -63.1851
      81 -63.6569      82 -63.6697      83 -63.4943      84 -63.5571      85 -63.1923
      86 -63.1966      87 -63.6430      88 -63.6474      89 -63.4971      90 -63.1817
      91 -63.2045      92 -63.6717      93 -63.6957      94 -63.6632      95 -63.6705
      96 -63.5170      97 -63.5168      98 -63.1888      99 -63.1802     100 -63.6741
     101 -63.6131     102 -63.2119     103 -63.4895     104 -63.2157     105 -63.2006
     106 -63.6340     107 -63.6473     108 -63.5078     109 -63.4913     110 -63.1826
     111 -63.1677     112 -63.4865     113 -63.2042     114 -63.5070     115 -63.5041
     116 -63.6941     117 -63.5173     118 -63.5178     119 -63.2129     120 -63.2154
     121 -63.6733     122 -63.6194     123 -63.5217     124 -63.5230     125 -63.2261
     126 -63.1992     127 -63.6008     128 -63.6671     129 -63.5094     130 -63.4899
     131 -63.2095     132 -63.1996     133 -63.6854     134 -63.6931     135 -63.2105
     136 -63.6794     137 -63.2012     138 -63.2018     139 -63.4966     140 -63.4960
     141 -63.6688     142 -63.6624     143 -63.1975     144 -63.1910     145 -63.5215
     146 -63.5211     147 -63.6724     148 -63.6572     149 -63.2030     150 -63.2065
     151 -63.5093     152 -63.5106     153 -63.6852     154 -63.6839     155 -63.1983
     156 -63.2010     157 -63.5257     158 -63.5304     159 -63.6718     160 -63.6802
 
 
 
 E-fermi :   1.1490     XC(G=0):  -8.8824     alpha+bet :-11.2524


 spin component 1

 k-point     1 :       0.2500    0.2500    0.2500
  band No.  band energies     occupation 
      1     -61.4023      1.00000
      2     -61.3539      1.00000
      3     -61.3432      1.00000
      4     -19.9955      1.00000
      5     -19.8548      1.00000
      6     -19.8353      1.00000
      7     -19.7737      1.00000
      8     -19.6486      1.00000
      9     -19.6373      1.00000
     10     -19.6181      1.00000
     11     -19.4418      1.00000
     12     -19.4054      1.00000
     13     -19.3624      1.00000
     14     -19.3277      1.00000
     15     -19.3036      1.00000
     16     -19.2847      1.00000
     17     -19.2187      1.00000
     18     -19.1853      1.00000
     19     -19.1801      1.00000
     20     -19.1330      1.00000
     21     -19.0848      1.00000
     22     -19.0584      1.00000
     23     -19.0505      1.00000
     24     -19.0330      1.00000
     25     -19.0074      1.00000
     26     -18.9898      1.00000
     27     -18.9795      1.00000
     28     -18.9760      1.00000
     29     -18.9649      1.00000
     30     -18.9266      1.00000
     31     -18.9195      1.00000
     32     -18.9005      1.00000
     33     -18.8973      1.00000
     34     -18.8820      1.00000
     35     -18.8722      1.00000
     36     -18.8507      1.00000
     37     -18.8337      1.00000
     38     -18.8229      1.00000
     39     -18.8148      1.00000
     40     -18.8105      1.00000
     41     -18.7957      1.00000
     42     -18.7719      1.00000
     43     -18.7687      1.00000
     44     -18.7425      1.00000
     45     -18.7190      1.00000
     46     -18.7024      1.00000
     47     -18.6892      1.00000
     48     -18.6749      1.00000
     49     -18.6604      1.00000
     50     -18.6452      1.00000
     51     -18.6429      1.00000
     52     -18.6404      1.00000
     53     -18.6282      1.00000
     54     -18.6104      1.00000
     55     -18.6003      1.00000
     56     -18.5965      1.00000
     57     -18.5796      1.00000
     58     -18.5745      1.00000
     59     -18.5650      1.00000
     60     -18.5617      1.00000
     61     -18.5425      1.00000
     62     -18.5406      1.00000
     63     -18.5391      1.00000
     64     -18.5352      1.00000
     65     -18.5200      1.00000
     66     -18.5159      1.00000
     67     -18.5065      1.00000
     68     -18.4598      1.00000
     69     -18.4350      1.00000
     70     -18.4178      1.00000
     71     -18.4106      1.00000
     72     -18.4030      1.00000
     73     -18.3980      1.00000
     74     -18.3652      1.00000
     75     -18.3555      1.00000
     76     -18.3447      1.00000
     77     -18.3415      1.00000
     78     -18.3349      1.00000
     79     -18.3246      1.00000
     80     -18.3206      1.00000
     81     -18.3159      1.00000
     82     -18.3118      1.00000
     83     -18.3069      1.00000
     84     -18.3053      1.00000
     85     -18.3033      1.00000
     86     -18.2957      1.00000
     87     -18.2877      1.00000
     88     -18.2844      1.00000
     89     -18.2771      1.00000
     90     -18.2705      1.00000
     91     -18.2657      1.00000
     92     -18.2516      1.00000
     93     -18.2427      1.00000
     94     -18.2376      1.00000
     95     -18.2273      1.00000
     96     -18.2178      1.00000
     97     -18.2151      1.00000
     98     -18.2108      1.00000
     99     -18.1813      1.00000
    100     -14.2944      1.00000
    101     -14.2780      1.00000
    102     -14.2659      1.00000
    103     -14.2630      1.00000
    104     -14.2542      1.00000
    105     -14.2399      1.00000
    106     -14.2381      1.00000
    107     -14.2357      1.00000
    108     -14.2342      1.00000
    109     -14.2305      1.00000
    110     -14.2287      1.00000
    111     -14.2264      1.00000
    112     -14.2219      1.00000
    113     -14.2179      1.00000
    114     -14.2158      1.00000
    115     -14.2145      1.00000
    116     -14.2138      1.00000
    117     -14.2109      1.00000
    118     -14.2083      1.00000
    119     -14.2016      1.00000
    120     -14.1950      1.00000
    121     -14.1930      1.00000
    122     -14.1906      1.00000
    123     -14.1878      1.00000
    124     -14.1844      1.00000
    125     -14.1813      1.00000
    126     -14.1789      1.00000
    127     -14.1763      1.00000
    128     -14.1736      1.00000
    129     -14.1715      1.00000
    130     -14.1679      1.00000
    131     -14.1655      1.00000
    132     -14.1635      1.00000
    133     -14.1620      1.00000
    134     -14.1608      1.00000
    135     -14.1590      1.00000
    136     -14.1566      1.00000
    137     -14.1545      1.00000
    138     -14.1523      1.00000
    139     -14.1516      1.00000
    140     -14.1507      1.00000
    141     -14.1496      1.00000
    142     -14.1490      1.00000
    143     -14.1463      1.00000
    144     -14.1451      1.00000
    145     -14.1431      1.00000
    146     -14.1421      1.00000
    147     -14.1395      1.00000
    148     -14.1382      1.00000
    149     -14.1367      1.00000
    150     -14.1353      1.00000
    151     -14.1343      1.00000
    152     -14.1326      1.00000
    153     -14.1316      1.00000
    154     -14.1309      1.00000
    155     -14.1301      1.00000
    156     -14.1286      1.00000
    157     -14.1276      1.00000
    158     -14.1258      1.00000
    159     -14.1253      1.00000
    160     -14.1232      1.00000
    161     -14.1221      1.00000
    162     -14.1196      1.00000
    163     -14.1180      1.00000
    164     -14.1155      1.00000
    165     -14.1148      1.00000
    166     -14.1121      1.00000
    167     -14.1114      1.00000
    168     -14.1087      1.00000
    169     -14.1060      1.00000
    170     -14.1044      1.00000
    171     -14.1009      1.00000
    172     -14.0992      1.00000
    173     -14.0946      1.00000
    174     -14.0935      1.00000
    175     -14.0892      1.00000
    176     -14.0851      1.00000
    177     -14.0811      1.00000
    178     -14.0794      1.00000
    179     -14.0746      1.00000
    180     -14.0708      1.00000
    181     -14.0636      1.00000
    182     -14.0613      1.00000
    183     -14.0577      1.00000
    184     -14.0569      1.00000
    185     -14.0484      1.00000
    186     -14.0449      1.00000
    187     -14.0367      1.00000
    188     -14.0356      1.00000
    189     -14.0320      1.00000
    190     -14.0304      1.00000
    191     -14.0279      1.00000
    192     -14.0220      1.00000
    193     -14.0199      1.00000
    194     -14.0171      1.00000
    195     -14.0134      1.00000
    196     -14.0126      1.00000
    197     -14.0106      1.00000
    198     -14.0078      1.00000
    199     -14.0053      1.00000
    200     -14.0031      1.00000
    201     -14.0022      1.00000
    202     -14.0008      1.00000
    203     -13.9991      1.00000
    204     -13.9982      1.00000
    205     -13.9969      1.00000
    206     -13.9957      1.00000
    207     -13.9951      1.00000
    208     -13.9942      1.00000
    209     -13.9906      1.00000
    210     -13.9893      1.00000
    211     -13.9881      1.00000
    212     -13.9848      1.00000
    213     -13.9838      1.00000
    214     -13.9822      1.00000
    215     -13.9803      1.00000
    216     -13.9782      1.00000
    217     -13.9779      1.00000
    218     -13.9765      1.00000
    219     -13.9745      1.00000
    220     -13.9724      1.00000
    221     -13.9702      1.00000
    222     -13.9681      1.00000
    223     -13.9679      1.00000
    224     -13.9653      1.00000
    225     -13.9629      1.00000
    226     -13.9619      1.00000
    227     -13.9606      1.00000
    228     -13.9595      1.00000
    229     -13.9581      1.00000
    230     -13.9559      1.00000
    231     -13.9550      1.00000
    232     -13.9528      1.00000
    233     -13.9519      1.00000
    234     -13.9502      1.00000
    235     -13.9486      1.00000
    236     -13.9459      1.00000
    237     -13.9423      1.00000
    238     -13.9405      1.00000
    239     -13.9382      1.00000
    240     -13.9377      1.00000
    241     -13.9367      1.00000
    242     -13.9336      1.00000
    243     -13.9322      1.00000
    244     -13.9311      1.00000
    245     -13.9293      1.00000
    246     -13.9274      1.00000
    247     -13.9253      1.00000
    248     -13.9235      1.00000
    249     -13.9220      1.00000
    250     -13.9208      1.00000
    251     -13.9193      1.00000
    252     -13.9158      1.00000
    253     -13.9141      1.00000
    254     -13.9129      1.00000
    255     -13.9106      1.00000
    256     -13.9089      1.00000
    257     -13.9052      1.00000
    258     -13.9037      1.00000
    259     -13.9023      1.00000
    260     -13.9005      1.00000
    261     -13.8974      1.00000
    262     -13.8965      1.00000
    263     -13.8925      1.00000
    264     -13.8896      1.00000
    265     -13.8876      1.00000
    266     -13.8849      1.00000
    267     -13.8818      1.00000
    268     -13.8811      1.00000
    269     -13.8773      1.00000
    270     -13.8738      1.00000
    271     -13.8714      1.00000
    272     -13.8683      1.00000
    273     -13.8675      1.00000
    274     -13.8630      1.00000
    275     -13.8617      1.00000
    276     -13.8604      1.00000
    277     -13.8593      1.00000
    278     -13.8574      1.00000
    279     -13.8554      1.00000
    280     -13.8525      1.00000
    281     -13.8513      1.00000
    282     -13.8490      1.00000
    283     -13.8469      1.00000
    284     -13.8452      1.00000
    285     -13.8433      1.00000
    286     -13.8420      1.00000
    287     -13.8398      1.00000
    288     -13.8378      1.00000
    289     -13.8370      1.00000
    290     -13.8350      1.00000
    291     -13.8329      1.00000
    292     -13.8325      1.00000
    293     -13.8303      1.00000
    294     -13.8274      1.00000
    295     -13.8269      1.00000
    296     -13.8261      1.00000
    297     -13.8237      1.00000
    298     -13.8217      1.00000
    299     -13.8203      1.00000
    300     -13.8185      1.00000
    301     -13.8142      1.00000
    302     -13.8128      1.00000
    303     -13.8092      1.00000
    304     -13.8076      1.00000
    305     -13.8055      1.00000
    306     -13.8050      1.00000
    307     -13.8033      1.00000
    308     -13.8006      1.00000
    309     -13.7986      1.00000
    310     -13.7975      1.00000
    311     -13.7966      1.00000
    312     -13.7959      1.00000
    313     -13.7924      1.00000
    314     -13.7917      1.00000
    315     -13.7903      1.00000
    316     -13.7883      1.00000
    317     -13.7855      1.00000
    318     -13.7844      1.00000
    319     -13.7821      1.00000
    320     -13.7797      1.00000
    321     -13.7776      1.00000
    322     -13.7760      1.00000
    323     -13.7742      1.00000
    324     -13.7735      1.00000
    325     -13.7723      1.00000
    326     -13.7710      1.00000
    327     -13.7699      1.00000
    328     -13.7681      1.00000
    329     -13.7669      1.00000
    330     -13.7652      1.00000
    331     -13.7633      1.00000
    332     -13.7619      1.00000
    333     -13.7603      1.00000
    334     -13.7565      1.00000
    335     -13.7536      1.00000
    336     -13.7504      1.00000
    337     -13.7489      1.00000
    338     -13.7469      1.00000
    339     -13.7459      1.00000
    340     -13.7454      1.00000
    341     -13.7401      1.00000
    342     -13.7367      1.00000
    343     -13.7353      1.00000
    344     -13.7332      1.00000
    345     -13.7324      1.00000
    346     -13.7247      1.00000
    347     -13.7217      1.00000
    348     -13.7174      1.00000
    349     -13.7117      1.00000
    350     -13.7024      1.00000
    351     -13.6915      1.00000
    352     -13.6852      1.00000
    353     -13.6812      1.00000
    354     -13.6744      1.00000
    355     -13.6619      1.00000
    356     -13.6541      1.00000
    357     -13.6454      1.00000
    358     -13.6366      1.00000
    359     -13.6197      1.00000
    360     -13.6128      1.00000
    361     -13.6039      1.00000
    362     -13.5887      1.00000
    363     -13.5648      1.00000
    364     -13.5551      1.00000
    365     -13.5339      1.00000
    366     -13.5214      1.00000
    367     -13.5097      1.00000
    368     -13.4846      1.00000
    369     -13.4644      1.00000
    370     -13.4553      1.00000
    371     -13.4323      1.00000
    372     -13.4197      1.00000
    373     -13.4054      1.00000
    374     -13.3970      1.00000
    375     -13.3843      1.00000
    376     -13.3741      1.00000
    377     -13.3676      1.00000
    378     -13.3589      1.00000
    379     -13.3440      1.00000
    380     -13.3321      1.00000
    381     -13.3165      1.00000
    382     -13.3129      1.00000
    383     -13.3024      1.00000
    384     -13.2778      1.00000
    385     -13.2658      1.00000
    386     -13.2589      1.00000
    387     -13.2363      1.00000
    388     -13.2303      1.00000
    389     -13.2093      1.00000
    390     -13.1950      1.00000
    391     -13.1763      1.00000
    392     -13.1521      1.00000
    393     -13.1242      1.00000
    394     -13.1114      1.00000
    395     -13.0936      1.00000
    396     -13.0864      1.00000
    397     -13.0806      1.00000
    398     -13.0632      1.00000
    399     -13.0537      1.00000
    400     -13.0391      1.00000
    401     -13.0372      1.00000
    402     -13.0179      1.00000
    403     -12.9971      1.00000
    404     -12.9838      1.00000
    405     -12.9738      1.00000
    406     -12.9699      1.00000
    407     -12.9499      1.00000
    408     -12.9314      1.00000
    409     -12.9199      1.00000
    410     -12.9076      1.00000
    411     -12.8940      1.00000
    412     -12.8830      1.00000
    413     -12.8587      1.00000
    414     -12.8462      1.00000
    415      -6.5854      1.00000
    416      -6.4431      1.00000
    417      -6.4062      1.00000
    418      -6.3622      1.00000
    419      -6.3274      1.00000
    420      -6.2597      1.00000
    421      -6.2290      1.00000
    422      -6.1674      1.00000
    423      -6.1281      1.00000
    424      -6.0555      1.00000
    425      -6.0025      1.00000
    426      -5.9380      1.00000
    427      -5.9136      1.00000
    428      -5.8579      1.00000
    429      -5.8373      1.00000
    430      -5.8019      1.00000
    431      -5.7862      1.00000
    432      -5.7377      1.00000
    433      -5.7154      1.00000
    434      -5.7034      1.00000
    435      -5.6570      1.00000
    436      -5.6458      1.00000
    437      -5.6313      1.00000
    438      -5.6222      1.00000
    439      -5.5897      1.00000
    440      -5.5441      1.00000
    441      -5.5371      1.00000
    442      -5.4852      1.00000
    443      -5.4707      1.00000
    444      -5.4360      1.00000
    445      -5.3999      1.00000
    446      -5.3726      1.00000
    447      -5.3379      1.00000
    448      -5.3245      1.00000
    449      -5.2978      1.00000
    450      -5.2575      1.00000
    451      -5.1758      1.00000
    452      -5.1473      1.00000
    453      -5.1142      1.00000
    454      -5.0763      1.00000
    455      -5.0515      1.00000
    456      -5.0030      1.00000
    457      -4.9777      1.00000
    458      -4.9081      1.00000
    459      -4.8557      1.00000
    460      -4.8390      1.00000
    461      -4.7825      1.00000
    462      -4.7420      1.00000
    463      -4.7228      1.00000
    464      -4.6470      1.00000
    465      -4.6002      1.00000
    466      -4.4679      1.00000
    467      -4.4139      1.00000
[...]
      1.94263      3.03403      5.92087        -0.006849     -0.000642      0.001312
      3.88745      7.57780      7.37222        -0.003045      0.005895     -0.000171
      3.88161      4.57897      1.57400        -0.002343     -0.003892      0.004891
      5.99971      3.03405      2.84684        -0.018012      0.000741     -0.000783
      5.89619      3.03529      0.03253         0.012175      0.001656      0.003811
      3.98191      4.58309      4.21426        -0.006859     -0.005260     -0.014078
      7.87716      4.56007     -1.32281         0.011568     -0.006058      0.012328
      2.01613      3.03410      2.73934         0.001963      0.000643     -0.001850
      9.81902      3.03500      0.12427        -0.005088     -0.000461      0.002107
      0.03293      4.56111      4.30271        -0.010780      0.004882     -0.001246
     11.82675      4.55986     -1.43018         0.009164      0.005020      0.005842
      9.91993      3.03414      2.73915        -0.003627      0.003318     -0.015901
      1.94515      3.03340      0.13171        -0.001031      0.001717      0.020257
      7.97629      1.51326      7.08096        -0.001266      0.003388      0.006012
      3.88601      1.51146      7.37704        -0.000523      0.004199     -0.000620
      7.88307      4.56087      4.47123         0.005153      0.001942     -0.009409
      7.97690      7.57865      7.08129        -0.000074      0.007102      0.001944
      1.94389      9.10014      0.13480        -0.004990      0.000261      0.014955
      9.91903      9.09963      2.74074         0.003585      0.002703     -0.012922
     11.82775     10.62247     -1.42536         0.009618      0.002259      0.000679
      0.03330     10.62303      4.30240        -0.007253      0.004063      0.000576
      9.81615      9.10028      0.12606         0.001105      0.001686      0.002093
      2.04545      9.10143      2.74963         0.000949     -0.001441      0.000175
      7.87840     10.62608     -1.32254         0.010597     -0.009980      0.006920
      3.98623     10.62375      4.19704        -0.005994     -0.017116     -0.008177
      5.89886      9.10182      0.02946         0.012432      0.000619     -0.002498
      5.96497      9.10167      2.84535        -0.009060      0.000101     -0.000902
      3.88757     10.61993      1.58332        -0.005242     -0.007424      0.004075
      7.97651     10.62244      1.29208         0.004714     -0.006736     -0.007284
      1.94422      9.10051      5.92377        -0.010699     -0.002441      0.003271
      9.91906      9.09992      8.52958         0.010177      0.000886      0.001683
     11.82799     10.62292      4.36302         0.009676      0.001909      0.000242
      0.03321     10.62196     10.08964        -0.005733      0.002041      0.000000
      9.81617      9.09878      5.91465         0.005371      0.002617     -0.005038
      2.04650      9.09982      8.53863        -0.000742      0.001290      0.005725
      7.87793     10.62330      4.46723         0.007541      0.002146     -0.007814
      3.98530     10.62392      9.98676        -0.002318      0.002991      0.005648
      5.89826      9.10150      5.81856         0.010928     -0.001709     -0.000586
      5.96514      9.10199      8.63524        -0.012515     -0.000603      0.001908
      3.88674     10.62162      7.37294        -0.001400      0.000209      0.000044
      7.97740     10.62077      7.08109        -0.000606     -0.002258      0.001175
 -----------------------------------------------------------------------------------
    total drift:                               -0.158165     -0.030655     -0.165168


--------------------------------------------------------------------------------------------------------



  FREE ENERGIE OF THE ION-ELECTRON SYSTEM (eV)
  ---------------------------------------------------
  free  energy   TOTEN  =     -1520.16011660 eV

  energy  without entropy=    -1520.16011660  energy(sigma->0) =    -1520.16011660
 
 d Force = 0.4140468E-03[-0.314E-04, 0.859E-03]  d Energy = 0.4039202E-03 0.101E-04
 d Force =-0.1769868E-02[-0.958E-02, 0.604E-02]  d Ewald  =-0.1768982E-02-0.886E-06


--------------------------------------------------------------------------------------------------------


    POTLOK:  cpu time    2.2444: real time    2.2445


--------------------------------------------------------------------------------------------------------




--------------------------------------------------------------------------------------------------------


  
 reached required accuracy - stopping structural energy minimisation
 writing wavefunctions
     LOOP+:  cpu time 1224.5902: real time 1227.1960
    4ORBIT:  cpu time    0.0000: real time    0.0000
 


 total charge     
 
# of ion       s       p       d       tot
------------------------------------------
    1        0.754   1.013  10.308  12.075
    2        0.753   1.008  10.304  12.065
    3        0.753   1.008  10.304  12.065
    4        0.655   0.826  10.270  11.751
    5        0.655   0.827  10.271  11.753
    6        0.754   1.013  10.307  12.074
    7        0.754   1.014  10.308  12.076
    8        0.655   0.826  10.271  11.752
    9        0.752   1.004  10.301  12.057
   10        0.752   1.004  10.301  12.058
   11        0.655   0.826  10.271  11.752
   12        0.657   0.833  10.276  11.766
   13        0.655   0.826  10.271  11.751
   14        0.753   1.005  10.303  12.061
   15        0.752   1.004  10.301  12.057
   16        0.655   0.827  10.272  11.755
   17        0.655   0.826  10.271  11.752
   18        0.754   1.011  10.307  12.072
   19        0.753   1.010  10.306  12.070
   20        0.654   0.819  10.266  11.739
   21        0.753   1.008  10.304  12.066
   22        0.655   0.831  10.276  11.762
   23        0.753   1.008  10.304  12.066
   24        0.656   0.832  10.275  11.763
   25        0.754   1.011  10.306  12.071
   26        0.753   1.009  10.304  12.066
   27        0.754   1.015  10.308  12.077
   28        0.655   0.827  10.271  11.754
   29        0.655   0.826  10.271  11.752
   30        0.754   1.011  10.307  12.073
   31        0.753   1.010  10.305  12.068
   32        0.655   0.832  10.277  11.764
   33        0.656   0.832  10.275  11.764
   34        0.754   1.013  10.308  12.075
   35        0.656   0.832  10.275  11.764
   36        0.654   0.819  10.266  11.739
   37        0.754   1.014  10.308  12.077
   38        0.754   1.011  10.306  12.071
   39        0.753   1.009  10.305  12.067
   40        0.655   0.825  10.270  11.750
   41        0.656   0.833  10.276  11.765
   42        0.656   0.832  10.275  11.763
   43        0.754   1.014  10.308  12.076
   44        0.754   1.013  10.307  12.073
   45        0.655   0.826  10.271  11.752
   46        0.655   0.825  10.270  11.750
   47        0.654   0.821  10.267  11.743
   48        0.752   1.004  10.301  12.057
   49        0.752   1.005  10.302  12.059
   50        0.655   0.826  10.271  11.752
   51        0.655   0.826  10.271  11.752
   52        0.753   1.009  10.305  12.067
   53        0.753   1.009  10.305  12.067
   54        0.655   0.823  10.268  11.746
   55        0.654   0.821  10.267  11.742
   56        0.752   1.004  10.301  12.057
   57        0.752   1.004  10.301  12.057
   58        0.655   0.827  10.271  11.754
   59        0.655   0.826  10.271  11.752
   60        0.753   1.009  10.305  12.066
   61        0.753   1.009  10.305  12.067
   62        0.654   0.820  10.266  11.741
   63        0.654   0.821  10.267  11.743
   64        0.302   6.385   5.483  12.169
   65        1.584   3.572   0.000   5.156
   66        1.584   3.573   0.000   5.157
   67        1.577   3.610   0.000   5.188
   68        1.580   3.585   0.000   5.165
   69        1.578   3.615   0.000   5.193
   70        1.578   3.613   0.000   5.191
   71        1.578   3.615   0.000   5.193
   72        1.578   3.616   0.000   5.194
   73        1.580   3.583   0.000   5.162
   74        1.580   3.583   0.000   5.163
   75        1.584   3.574   0.000   5.158
   76        1.584   3.574   0.000   5.158
   77        1.578   3.613   0.000   5.191
   78        1.578   3.613   0.000   5.191
   79        1.580   3.584   0.000   5.165
   80        1.580   3.584   0.000   5.165
   81        1.584   3.572   0.000   5.156
   82        1.584   3.573   0.000   5.157
   83        1.578   3.613   0.000   5.191
   84        1.577   3.609   0.000   5.186
   85        1.580   3.583   0.000   5.163
   86        1.580   3.583   0.000   5.163
   87        1.584   3.574   0.000   5.158
   88        1.584   3.575   0.000   5.159
   89        1.578   3.613   0.000   5.191
   90        1.580   3.584   0.000   5.164
   91        1.580   3.583   0.000   5.163
   92        1.584   3.574   0.000   5.158
   93        1.583   3.570   0.000   5.153
   94        1.584   3.574   0.000   5.158
   95        1.584   3.574   0.000   5.159
   96        1.578   3.613   0.000   5.191
   97        1.578   3.613   0.000   5.191
   98        1.580   3.584   0.000   5.165
   99        1.580   3.585   0.000   5.165
  100        1.584   3.574   0.000   5.158
  101        1.584   3.573   0.000   5.157
  102        1.580   3.584   0.000   5.164
  103        1.578   3.613   0.000   5.191
  104        1.583   3.576   0.000   5.159
  105        1.580   3.583   0.000   5.163
  106        1.584   3.574   0.000   5.158
  107        1.584   3.575   0.000   5.159
  108        1.578   3.614   0.000   5.192
  109        1.578   3.614   0.000   5.192
  110        1.580   3.584   0.000   5.164
  111        1.580   3.585   0.000   5.165
  112        1.578   3.615   0.000   5.193
  113        1.580   3.583   0.000   5.163
  114        1.578   3.616   0.000   5.194
  115        1.578   3.615   0.000   5.193
  116        1.583   3.570   0.000   5.153
  117        1.578   3.613   0.000   5.191
  118        1.578   3.613   0.000   5.191
  119        1.579   3.581   0.000   5.161
  120        1.579   3.579   0.000   5.159
  121        1.584   3.571   0.000   5.155
  122        1.584   3.573   0.000   5.157
  123        1.580   3.607   0.000   5.187
  124        1.577   3.609   0.000   5.186
  125        1.583   3.576   0.000   5.159
  126        1.580   3.583   0.000   5.163
  127        1.584   3.570   0.000   5.153
  128        1.583   3.570   0.000   5.153
  129        1.578   3.614   0.000   5.192
  130        1.578   3.614   0.000   5.192
  131        1.579   3.580   0.000   5.159
  132        1.580   3.580   0.000   5.160
  133        1.584   3.572   0.000   5.156
  134        1.584   3.573   0.000   5.157
  135        1.580   3.584   0.000   5.164
  136        1.584   3.572   0.000   5.156
  137        1.579   3.581   0.000   5.160
  138        1.579   3.581   0.000   5.160
  139        1.578   3.614   0.000   5.191
  140        1.578   3.613   0.000   5.191
  141        1.583   3.570   0.000   5.153
  142        1.583   3.570   0.000   5.153
  143        1.580   3.583   0.000   5.163
  144        1.580   3.584   0.000   5.164
  145        1.577   3.611   0.000   5.189
  146        1.577   3.611   0.000   5.189
  147        1.584   3.573   0.000   5.157
  148        1.584   3.572   0.000   5.156
  149        1.579   3.581   0.000   5.160
  150        1.579   3.581   0.000   5.160
  151        1.578   3.613   0.000   5.191
  152        1.578   3.613   0.000   5.191
  153        1.583   3.570   0.000   5.153
  154        1.583   3.570   0.000   5.153
  155        1.580   3.583   0.000   5.163
  156        1.580   3.583   0.000   5.163
  157        1.577   3.611   0.000   5.189
  158        1.577   3.611   0.000   5.188
  159        1.584   3.572   0.000   5.156
  160        1.584   3.572   0.000   5.156
--------------------------------------------------
tot        196.448 408.859 653.6451258.952
 


 magnetization (x)
 
# of ion       s       p       d       tot
------------------------------------------
    1       -0.000  -0.000  -0.000  -0.000
    2       -0.000  -0.000  -0.000  -0.000
    3       -0.000  -0.000   0.000  -0.000
    4        0.000   0.000   0.000   0.000
    5        0.000   0.000   0.000   0.000
    6       -0.000  -0.000  -0.000  -0.000
    7        0.000   0.000   0.000   0.000
    8       -0.000  -0.000  -0.000  -0.000
    9       -0.000   0.000   0.000   0.000
   10       -0.000  -0.000   0.000  -0.000
   11       -0.000  -0.000   0.000  -0.000
   12        0.000   0.000   0.000   0.000
   13       -0.000  -0.000   0.000  -0.000
   14        0.000   0.001   0.001   0.002
   15       -0.000  -0.000  -0.000  -0.000
   16       -0.000   0.000   0.000   0.000
   17        0.000   0.000  -0.000   0.000
   18        0.001   0.003   0.002   0.006
   19        0.000   0.001   0.001   0.003
   20       -0.000  -0.000  -0.000  -0.000
   21       -0.000  -0.000  -0.000  -0.000
   22        0.001   0.001   0.000   0.002
   23       -0.000  -0.000   0.000  -0.000
   24       -0.000  -0.000   0.000   0.000
   25        0.001   0.003   0.002   0.006
   26       -0.000   0.000   0.000   0.000
   27        0.000   0.000   0.000   0.000
   28       -0.000   0.000   0.000   0.000
   29        0.000   0.000  -0.000   0.000
   30        0.001   0.003   0.002   0.006
   31        0.000   0.001   0.001   0.003
   32        0.001   0.001   0.000   0.002
   33       -0.000   0.000   0.000   0.000
   34       -0.000   0.000  -0.000  -0.000
   35       -0.000   0.000   0.000   0.000
   36       -0.000  -0.000  -0.000  -0.000
   37        0.000   0.000   0.000   0.000
   38        0.001   0.003   0.002   0.006
   39       -0.000   0.000   0.000   0.000
   40       -0.000  -0.000  -0.000  -0.000
   41        0.000   0.000   0.000   0.000
   42       -0.000  -0.000   0.000   0.000
   43        0.000   0.000   0.000   0.000
   44       -0.000  -0.000  -0.000  -0.000
   45       -0.000  -0.000  -0.000  -0.000
   46       -0.000  -0.000  -0.000  -0.000
   47       -0.000   0.000   0.000   0.000
   48       -0.000  -0.000   0.000  -0.000
   49       -0.000  -0.000   0.000  -0.000
   50       -0.000  -0.000   0.000  -0.000
   51       -0.000  -0.000   0.000  -0.000
   52       -0.000  -0.000   0.000  -0.000
   53       -0.000  -0.000  -0.000  -0.000
   54       -0.000   0.000   0.000   0.000
   55       -0.000  -0.000   0.000  -0.000
   56        0.000  -0.000  -0.000  -0.000
   57        0.000   0.000   0.000   0.000
   58        0.000   0.000   0.000   0.000
   59        0.000   0.000   0.000   0.000
   60       -0.000  -0.000  -0.000  -0.000
   61       -0.000  -0.000  -0.000  -0.000
   62       -0.000  -0.000  -0.000  -0.000
   63       -0.000  -0.000   0.000  -0.000
   64        0.015   0.016   4.269   4.300
   65       -0.000   0.000   0.000   0.000
   66        0.000   0.001   0.000   0.001
   67       -0.000   0.000   0.000   0.000
   68        0.000   0.001   0.000   0.001
   69        0.000   0.001   0.000   0.001
   70       -0.000   0.000   0.000   0.000
   71       -0.000   0.000   0.000   0.000
   72        0.000   0.002   0.000   0.002
   73       -0.000  -0.000   0.000  -0.000
   74       -0.000   0.000   0.000   0.000
   75        0.000   0.000   0.000   0.000
   76        0.000   0.000   0.000   0.000
   77        0.000   0.000   0.000   0.000
   78        0.000   0.000   0.000   0.000
   79        0.000   0.000   0.000   0.000
   80        0.000   0.001   0.000   0.001
   81       -0.000   0.000   0.000   0.000
   82        0.000   0.001   0.000   0.001
   83        0.000   0.001   0.000   0.001
   84       -0.000  -0.001   0.000  -0.001
   85        0.000   0.001   0.000   0.001
   86        0.000   0.000   0.000   0.000
   87        0.000   0.001   0.000   0.001
   88        0.000   0.000   0.000   0.000
   89       -0.000   0.000   0.000   0.000
   90        0.000   0.000   0.000   0.000
   91        0.000   0.001   0.000   0.001
   92        0.000   0.002   0.000   0.002
   93       -0.000   0.000   0.000   0.000
   94        0.000   0.000   0.000   0.000
   95        0.000   0.000   0.000   0.000
   96       -0.000   0.000   0.000   0.000
   97       -0.000  -0.000   0.000  -0.000
   98        0.000   0.000   0.000   0.000
   99        0.000   0.001   0.000   0.001
  100        0.000   0.002   0.000   0.002
  101        0.006   0.054   0.000   0.059
  102        0.000   0.002   0.000   0.002
  103        0.000   0.001   0.000   0.001
  104        0.008   0.099   0.000   0.107
  105       -0.000   0.000   0.000   0.000
  106        0.000   0.001   0.000   0.001
  107        0.000   0.000   0.000   0.000
  108        0.000   0.001   0.000   0.001
  109        0.000   0.001   0.000   0.001
  110        0.000   0.000   0.000   0.000
  111        0.000   0.001   0.000   0.001
  112        0.000   0.001   0.000   0.001
  113        0.000   0.001   0.000   0.001
  114        0.000   0.002   0.000   0.002
  115       -0.000   0.000   0.000   0.000
  116       -0.000   0.000   0.000   0.000
  117       -0.000   0.000   0.000   0.000
  118       -0.000  -0.000   0.000  -0.000
  119       -0.000   0.000   0.000   0.000
  120       -0.000  -0.001   0.000  -0.001
  121       -0.000   0.000   0.000   0.000
  122        0.006   0.053   0.000   0.059
  123        0.009   0.076   0.000   0.085
  124       -0.000  -0.001   0.000  -0.001
  125        0.008   0.099   0.000   0.107
  126       -0.000   0.000   0.000   0.000
  127        0.006   0.066   0.000   0.072
  128       -0.000   0.000   0.000  -0.000
  129        0.000   0.001   0.000   0.001
  130        0.000   0.001   0.000   0.001
  131        0.000   0.000   0.000   0.000
  132        0.000   0.001   0.000   0.001
  133       -0.000   0.000   0.000   0.000
  134        0.000   0.001   0.000   0.001
  135        0.000   0.002   0.000   0.002
  136        0.000   0.000   0.000   0.000
  137        0.000   0.000   0.000   0.000
  138       -0.000   0.000   0.000   0.000
  139       -0.000   0.000   0.000   0.000
  140       -0.000   0.000   0.000   0.000
  141       -0.000   0.000   0.000   0.000
  142       -0.000   0.000   0.000   0.000
  143        0.000   0.000   0.000   0.000
  144        0.000   0.001   0.000   0.001
  145       -0.000  -0.000   0.000  -0.000
  146       -0.000   0.000   0.000   0.000
  147        0.000   0.001   0.000   0.001
  148       -0.000   0.000   0.000   0.000
  149        0.000   0.000   0.000   0.000
  150        0.000   0.000   0.000   0.000
  151        0.000   0.000   0.000   0.000
  152        0.000   0.000   0.000   0.000
  153        0.000   0.000   0.000   0.000
  154       -0.000  -0.000   0.000  -0.000
  155        0.000   0.000   0.000   0.000
  156       -0.000  -0.000   0.000  -0.000
  157        0.000   0.000   0.000   0.000
  158       -0.000  -0.000   0.000  -0.000
  159       -0.000   0.000   0.000   0.000
  160        0.000   0.000   0.000   0.000
--------------------------------------------------
tot          0.066   0.512   4.281   4.859
 

 total amount of memory used by VASP MPI-rank0   108390. kBytes
=======================================================================

   base      :      30000. kBytes
   nonlr-proj:      43766. kBytes
   fftplans  :       1403. kBytes
   grid      :      18679. kBytes
   one-center:       4976. kBytes
   HF        :        194. kBytes
   wavefun   :       9372. kBytes
 
  
  
 General timing and accounting informations for this job:
 ========================================================
  
                  Total CPU time used (sec):     3726.048
                            User time (sec):     3596.447
                          System time (sec):      129.602
                         Elapsed time (sec):     3746.553
  
                   Maximum memory used (kb):      599452.
                   Average memory used (kb):           0.
  
                          Minor page faults:     20277518
                          Major page faults:           56
                 Voluntary context switches:        43614
