 vasp.5.4.1 05Feb16 (build May 04 2017 01:30:51) complex                        
  
 executed on      LLNL_Quartz_ifc date 2017.11.18  16:36:18
 running on  288 total cores
 distrk:  each k-point on  288 cores,    1 groups
 distr:  one band on NCORES_PER_BAND=   1 cores,  288 groups


--------------------------------------------------------------------------------------------------------


 INCAR:
 POTCAR:   PAW_PBE Ga_d 06Sep2000                 
 POTCAR:   PAW_PBE O 08Apr2002                    

 ----------------------------------------------------------------------------- 
|                                                                             |
|           W    W    AA    RRRRR   N    N  II  N    N   GGGG   !!!           |
|           W    W   A  A   R    R  NN   N  II  NN   N  G    G  !!!           |
|           W    W  A    A  R    R  N N  N  II  N N  N  G       !!!           |
|           W WW W  AAAAAA  RRRRR   N  N N  II  N  N N  G  GGG   !            |
|           WW  WW  A    A  R   R   N   NN  II  N   NN  G    G                |
|           W    W  A    A  R    R  N    N  II  N    N   GGGG   !!!           |
|                                                                             |
|      For optimal performance we recommend to set                            |
|        NCORE= 4 - approx SQRT( number of cores)                             |
|      NCORE specifies how many cores store one orbital (NPAR=cpu/NCORE).     |
|      This setting can  greatly improve the performance of VASP for DFT.     |
|      The default, NPAR=number of cores might be grossly inefficient         |
|      on modern multi-core architectures or massively parallel machines.     |
|      Do your own testing !!!!                                               |
|      Unfortunately you need to use the default for GW and RPA calculations. |
|      (for HF NCORE is supported but not extensively tested yet)             |
|                                                                             |
 ----------------------------------------------------------------------------- 

 POTCAR:   PAW_PBE Ga_d 06Sep2000                 
   VRHFIN =Ga: s2p1                                                             
   LEXCH  = PE                                                                  
   EATOM  =  2149.0616 eV,  157.9516 Ry                                         
                                                                                
   TITEL  = PAW_PBE Ga_d 06Sep2000                                              
   LULTRA =        F    use ultrasoft PP ?                                      
   IUNSCR =        1    unscreen: 0-lin 1-nonlin 2-no                           
   RPACOR =    2.000    partial core radius                                     
   POMASS =   69.723; ZVAL   =   13.000    mass and valenz                      
   RCORE  =    2.300    outmost cutoff radius                                   
   RWIGS  =    2.300; RWIGS  =    1.217    wigner-seitz radius (au A)           
   ENMAX  =  282.697; ENMIN  =  212.022 eV                                      
   ICORE  =        3    local potential                                         
   LCOR   =        T    correct aug charges                                     
   LPAW   =        T    paw PP                                                  
   EAUG   =  490.690                                                            
   DEXC   =    -.001                                                            
   RMAX   =    2.742    core radius for proj-oper                               
   RAUG   =    1.300    factor for augmentation sphere                          
   RDEP   =    2.413    radius for radial grids                                 
   QCUT   =   -4.558; QGAM   =    9.117    optimization parameters              
                                                                                
   Description                                                                  
     l     E      TYP  RCUT    TYP  RCUT                                        
     2   .000     23  2.300                                                     
     2  -.400     23  2.300                                                     
     0   .000     23  2.300                                                     
     0   .000     23  2.300                                                     
     1   .000     23  2.300                                                     
     1   .000     23  2.300                                                     
     3  -.100      7  2.300                                                     
  local pseudopotential read in
  partial core-charges read in
  atomic valenz-charges read in
  non local Contribution for L=           2  read in
    real space projection operators read in
  non local Contribution for L=           2  read in
    real space projection operators read in
  non local Contribution for L=           0  read in
    real space projection operators read in
  non local Contribution for L=           0  read in
    real space projection operators read in
  non local Contribution for L=           1  read in
    real space projection operators read in
  non local Contribution for L=           1  read in
    real space projection operators read in
    PAW grid and wavefunctions read in
 
   number of l-projection  operators is LMAX  =           6
   number of lm-projection operators is LMMAX =          18
 
 POTCAR:   PAW_PBE O 08Apr2002                    
   VRHFIN =O: s2p4                                                              
   LEXCH  = PE                                                                  
   EATOM  =   432.3788 eV,   31.7789 Ry                                         
                                                                                
   TITEL  = PAW_PBE O 08Apr2002                                                 
   LULTRA =        F    use ultrasoft PP ?                                      
   IUNSCR =        0    unscreen: 0-lin 1-nonlin 2-no                           
   RPACOR =     .000    partial core radius                                     
   POMASS =   16.000; ZVAL   =    6.000    mass and valenz                      
   RCORE  =    1.520    outmost cutoff radius                                   
   RWIGS  =    1.550; RWIGS  =     .820    wigner-seitz radius (au A)           
   ENMAX  =  400.000; ENMIN  =  300.000 eV                                      
   ICORE  =        2    local potential                                         
   LCOR   =        T    correct aug charges                                     
   LPAW   =        T    paw PP                                                  
   EAUG   =  605.392                                                            
   DEXC   =     .000                                                            
   RMAX   =    2.264    core radius for proj-oper                               
   RAUG   =    1.300    factor for augmentation sphere                          
   RDEP   =    1.550    radius for radial grids                                 
   QCUT   =   -5.520; QGAM   =   11.041    optimization parameters              
                                                                                
   Description                                                                  
     l     E      TYP  RCUT    TYP  RCUT                                        
     0   .000     23  1.200                                                     
     0  -.700     23  1.200                                                     
     1   .000     23  1.520                                                     
     1   .600     23  1.520                                                     
     2   .000      7  1.500                                                     
  local pseudopotential read in
  atomic valenz-charges read in
  non local Contribution for L=           0  read in
    real space projection operators read in
  non local Contribution for L=           0  read in
    real space projection operators read in
  non local Contribution for L=           1  read in
    real space projection operators read in
  non local Contribution for L=           1  read in
    real space projection operators read in
    PAW grid and wavefunctions read in
 
   number of l-projection  operators is LMAX  =           4
   number of lm-projection operators is LMMAX =           8
 
 Optimization of the real space projectors (new method)

 maximal supplied QI-value         = 16.25
 optimisation between [QCUT,QGAM] = [ 10.24, 20.48] = [ 29.35,117.42] Ry 
 Optimized for a Real-space Cutoff    1.38 Angstroem

   l    n(q)    QCUT    max X(q) W(low)/X(q) W(high)/X(q)  e(spline) 
   2      7    10.239     6.328    0.33E-04    0.68E-04    0.30E-07
   2      7    10.239     9.625    0.20E-03    0.23E-03    0.80E-07
   0      8    10.239     9.711    0.17E-04    0.17E-04    0.13E-07
   0      8    10.239    32.764    0.56E-04    0.14E-03    0.62E-07
   1      8    10.239     7.413    0.78E-04    0.28E-04    0.38E-07
   1      8    10.239    31.472    0.43E-03    0.30E-03    0.73E-07
 Optimization of the real space projectors (new method)

 maximal supplied QI-value         = 24.76
 optimisation between [QCUT,QGAM] = [ 10.15, 20.30] = [ 28.85,115.39] Ry 
 Optimized for a Real-space Cutoff    1.30 Angstroem

   l    n(q)    QCUT    max X(q) W(low)/X(q) W(high)/X(q)  e(spline) 
   0      8    10.150     4.192    0.55E-04    0.58E-04    0.78E-07
   0      8    10.150     8.473    0.46E-03    0.68E-03    0.23E-06
   1      7    10.150     2.474    0.11E-03    0.93E-04    0.33E-07
   1      7    10.150     3.912    0.46E-03    0.50E-03    0.15E-06
 PAW_PBE Ga_d 06Sep2000                 :
 energy of atom  1       EATOM=-2149.0616
 kinetic energy error for atom=    0.0101 (will be added to EATOM!!)
 PAW_PBE O 08Apr2002                    :
 energy of atom  2       EATOM= -432.3788
 kinetic energy error for atom=    0.1156 (will be added to EATOM!!)
 
 
 POSCAR: Ga  O                                   
  positions in direct lattice
  velocities in cartesian coordinates
 exchange correlation table for  LEXCH =        8
   RHO(1)=    0.500       N(1)  =     2000
   RHO(2)=  100.500       N(2)  =     4000
 


--------------------------------------------------------------------------------------------------------


 ion  position               nearest neighbor table
   1  0.500  0.376  0.500- 124 1.92 134 1.92  71 2.02  82 2.02  83 2.02 122 2.02  23 2.81  41 2.81
                            20 2.81  37 2.81
   2  0.091  1.000  0.397-  98 1.82 107 1.82 139 1.83 105 1.86
   3  0.411  0.614  0.602-  71 1.79  84 1.84 120 1.88 156 1.89
   4  0.589  0.624  0.898-  70 1.82  85 1.82 157 1.84 135 1.87
   5  0.160  0.625  0.656-  79 1.93  77 1.94 148 1.95 120 2.00  74 2.01 153 2.10
   6  0.841  0.626  0.845-  76 1.92  78 1.93 149 1.94 135 1.99  75 2.06 152 2.09
   7  0.913  0.500  0.606-  89 1.82  77 1.83 117 1.83  75 1.86
   8  0.088  0.501  0.894-  67 1.82  74 1.83 116 1.83  76 1.83
   9  0.841  0.375  0.848- 116 1.93  64 1.93  78 1.93 118 1.94  75 2.10 115 2.11
  10  0.914  0.250  0.606- 130 1.82  96 1.83 117 1.83 115 1.86
  11  0.087  0.248  0.894- 131 1.82  92 1.83  95 1.84 116 1.84
  12  0.840  0.625  0.344-  89 1.93  88 1.94 137 1.95  80 2.00  87 2.01 140 2.10
  13  0.657  0.001  0.654- 101 1.91 113 1.92 154 1.94  94 2.04 132 2.08 159 2.09
  14  0.159  0.626  0.155-  69 1.92  67 1.93 136 1.94  81 1.99  86 2.06 141 2.09
  15  0.086  0.250  0.394- 119 1.82 107 1.83 128 1.83 126 1.86
  16  0.913  0.248  0.106- 118 1.82 127 1.83 108 1.84 129 1.84
  17  0.834  0.375  0.349-  91 1.86  89 1.92 130 1.92 128 1.99  87 2.18 127 2.20
  18  0.159  0.375  0.152- 129 1.93 121 1.93  67 1.93 131 1.94  86 2.10 126 2.11
  19  0.414  0.375  0.107-  90 1.82  68 1.82 123 1.83 121 1.84
  20  0.337  0.250  0.342- 122 1.89 124 1.90 103 1.97 126 2.01 100 2.09 121 2.13   1 2.81
  21  0.661  0.255  0.160-  91 1.92 123 1.94 125 1.96 104 2.00 127 2.03  99 2.11  36 2.92
  22  0.411  0.624  0.102-  68 1.82  72 1.82 144 1.84  81 1.87
  23  0.337  0.501  0.340-  82 1.89 124 1.89  84 1.97  86 2.01  81 2.07 121 2.11   1 2.81
  24  0.589  0.614  0.398-  82 1.79  73 1.84  80 1.88 145 1.89
  25  0.342  0.002  0.842- 114 1.93 112 1.93 155 1.96  93 2.02 133 2.05 158 2.07
  26  0.412  0.136  0.602-  83 1.80 103 1.84 133 1.88 113 1.89
  27  0.590  0.126  0.898-  66 1.82 104 1.82 114 1.83 132 1.87
  28  0.909  1.000  0.104- 108 1.82  97 1.82 138 1.83 106 1.85
  29  0.840  0.125  0.344- 130 1.93 109 1.94 107 1.94  99 2.00 127 2.01 106 2.08
  30  0.160  0.124  0.156- 108 1.92 131 1.93 110 1.94 100 1.99 126 2.06 105 2.07
  31  0.588  0.136  0.398- 122 1.80 101 1.84  99 1.88 102 1.89
  32  0.410  0.126  0.102- 123 1.82 112 1.82 111 1.83 100 1.87
  33  0.343  0.001  0.346- 103 1.91 102 1.92 143 1.94 105 2.04 100 2.08 146 2.09
  34  0.658  0.002  0.158- 111 1.93 104 1.93 142 1.96 106 2.02  99 2.05 147 2.07
  35  0.087  0.500  0.394-  79 1.82  88 1.83 128 1.83  86 1.86
  36  0.661  0.495  0.160-  91 1.92  68 1.94 125 1.95  85 1.99  87 2.03  80 2.10  21 2.92
  37  0.663  0.250  0.658-  83 1.89 134 1.90 101 1.97 115 2.01 132 2.09  64 2.13   1 2.81
  38  0.912  0.501  0.106-  78 1.82  87 1.83 129 1.83  69 1.83
  39  0.586  0.375  0.893- 125 1.82  70 1.82  66 1.83  64 1.84
  40  0.166  0.375  0.651-  65 1.86  79 1.92 119 1.92 117 1.99  74 2.18  92 2.20
  41  0.663  0.501  0.660-  71 1.89 134 1.89  73 1.97  75 2.01 135 2.07  64 2.11   1 2.81
  42  0.339  0.495  0.840-  65 1.92  70 1.94  90 1.95  72 1.99  74 2.03 120 2.10  47 2.92
  43  0.091  1.000  0.896-  95 1.82 110 1.82 151 1.83  93 1.85
  44  0.909  1.000  0.603- 109 1.82  96 1.82 150 1.83  94 1.86
  45  0.840  0.124  0.844-  95 1.92 118 1.93  97 1.94 132 1.99 115 2.06  94 2.07
  46  0.160  0.125  0.656- 119 1.93  98 1.94  96 1.94 133 2.00  92 2.01  93 2.08
  47  0.339  0.255  0.840-  65 1.92  66 1.94  90 1.96 112 2.00  92 2.03 133 2.11  42 2.92
  48  0.090  0.750  0.396- 148 1.82  88 1.83 139 1.83 141 1.86
  49  0.911  0.751  0.104- 149 1.83  69 1.83 138 1.83 140 1.86
  50  0.840  0.875  0.343- 109 1.93 137 1.93 139 1.94 147 2.02 106 2.05 140 2.06
  51  0.161  0.875  0.157- 110 1.94 136 1.94 138 1.94 146 2.01 105 2.05 141 2.05
  52  0.587  0.875  0.396- 154 1.83 102 1.84 145 1.84 147 1.86
  53  0.410  0.875  0.103- 155 1.82 111 1.83 144 1.83 146 1.86
  54  0.343  0.749  0.346-  84 1.92 145 1.92 143 1.94 141 2.04  81 2.10 146 2.10
  55  0.659  0.749  0.157- 144 1.93  85 1.94 142 1.96 140 2.01  80 2.07 147 2.08
  56  0.089  0.751  0.896- 136 1.83  76 1.83 151 1.83 153 1.86
  57  0.910  0.750  0.604- 137 1.82  77 1.83 150 1.83 152 1.86
  58  0.839  0.875  0.843-  97 1.94 149 1.94 151 1.94 159 2.01  94 2.05 152 2.05
  59  0.160  0.875  0.657-  98 1.93 148 1.93 150 1.94 158 2.02  93 2.05 153 2.06
  60  0.590  0.875  0.897- 142 1.82 114 1.83 157 1.83 159 1.86
  61  0.413  0.875  0.604- 143 1.83 113 1.84 156 1.84 158 1.86
  62  0.341  0.749  0.843- 157 1.93  72 1.94 155 1.96 153 2.01 120 2.07 158 2.08
  63  0.657  0.749  0.654-  73 1.92 156 1.92 154 1.94 152 2.04 135 2.10 159 2.10
  64  0.679  0.375  0.790-  39 1.84   9 1.93  41 2.11  37 2.13
  65  0.318  0.375  0.729-  40 1.86  42 1.92  47 1.92
  66  0.502  0.248  0.871-  27 1.82  39 1.83  47 1.94
  67  0.161  0.502  0.051-   8 1.82  14 1.93  18 1.93
  68  0.498  0.501  0.129-  22 1.82  19 1.82  36 1.94
  69  0.998  0.627  0.127-  49 1.83  38 1.83  14 1.92
  70  0.502  0.501  0.871-   4 1.82  39 1.82  42 1.94
  71  0.503  0.497  0.621-   3 1.79  41 1.89   1 2.02
  72  0.336  0.624  0.945-  22 1.82  62 1.94  42 1.99
  73  0.669  0.626  0.554-  24 1.84  63 1.92  41 1.97
  74  0.169  0.506  0.780-   8 1.83   5 2.01  42 2.03  40 2.18
  75  0.831  0.501  0.722-   7 1.86  41 2.01   6 2.06   9 2.10
  76  0.002  0.627  0.873-  56 1.83   8 1.83   6 1.92
  77  0.997  0.626  0.628-  57 1.83   7 1.83   5 1.94
  78  0.839  0.502  0.949-  38 1.82   6 1.93   9 1.93
  79  0.161  0.501  0.551-  35 1.82  40 1.92   5 1.93
  80  0.673  0.625  0.283-  24 1.88  12 2.00  55 2.07  36 2.10
  81  0.326  0.626  0.216-  22 1.87  14 1.99  23 2.07  54 2.10
  82  0.497  0.497  0.379-  24 1.79  23 1.89   1 2.02
  83  0.503  0.255  0.621-  26 1.80  37 1.89   1 2.02
  84  0.331  0.626  0.446-   3 1.84  54 1.92  23 1.97
  85  0.664  0.624  0.055-   4 1.82  55 1.94  36 1.99
  86  0.169  0.501  0.278-  35 1.86  23 2.01  14 2.06  18 2.10
  87  0.831  0.506  0.220-  38 1.83  12 2.01  36 2.03  17 2.18
  88  0.003  0.626  0.372-  48 1.83  35 1.83  12 1.94
  89  0.839  0.501  0.449-   7 1.82  17 1.92  12 1.93
  90  0.336  0.376  0.952-  19 1.82  42 1.95  47 1.96
  91  0.682  0.375  0.271-  17 1.86  36 1.92  21 1.92
  92  0.169  0.242  0.781-  11 1.83  46 2.01  47 2.03  40 2.20
  93  0.173  0.999  0.781-  43 1.85  25 2.02  59 2.05  46 2.08
  94  0.827  0.999  0.720-  44 1.86  13 2.04  58 2.05  45 2.07
  95  0.002  0.122  0.873-  43 1.82  11 1.84  45 1.92
  96  0.997  0.123  0.628-  44 1.82  10 1.83  46 1.94
  97  0.835  0.999  0.947-  28 1.82  58 1.94  45 1.94
  98  0.163  0.999  0.553-   2 1.82  59 1.93  46 1.94
  99  0.672  0.124  0.283-  31 1.88  29 2.00  34 2.05  21 2.11
 100  0.326  0.124  0.217-  32 1.87  30 1.99  33 2.08  20 2.09
 101  0.668  0.123  0.553-  31 1.84  13 1.91  37 1.97
 102  0.505  0.003  0.373-  52 1.84  31 1.89  33 1.92
 103  0.332  0.123  0.447-  26 1.84  33 1.91  20 1.97
 104  0.664  0.125  0.055-  27 1.82  34 1.93  21 2.00
 105  0.173  0.999  0.280-   2 1.86  33 2.04  51 2.05  30 2.07
 106  0.827  0.999  0.219-  28 1.85  34 2.02  50 2.05  29 2.08
 107  0.003  0.123  0.372-   2 1.82  15 1.83  29 1.94
 108  0.998  0.122  0.127-  28 1.82  16 1.84  30 1.92
 109  0.837  0.999  0.447-  44 1.82  50 1.93  29 1.94
 110  0.165  0.999  0.053-  43 1.82  51 1.94  30 1.94
 111  0.496  1.000  0.127-  53 1.83  32 1.83  34 1.93
 112  0.336  0.125  0.945-  32 1.82  25 1.93  47 2.00
 113  0.495  0.003  0.627-  61 1.84  26 1.89  13 1.92
 114  0.504  1.000  0.873-  60 1.83  27 1.83  25 1.93
 115  0.830  0.248  0.721-  10 1.86  37 2.01  45 2.06   9 2.11
 116  0.003  0.375  0.873-   8 1.83  11 1.84   9 1.93
 117  1.000  0.376  0.629-   7 1.83  10 1.83  40 1.99
 118  0.840  0.248  0.949-  16 1.82  45 1.93   9 1.94
 119  0.160  0.248  0.551-  15 1.82  40 1.92  46 1.93
 120  0.327  0.625  0.717-   3 1.88   5 2.00  62 2.07  42 2.10
 121  0.321  0.375  0.210-  19 1.84  18 1.93  23 2.11  20 2.13
 122  0.497  0.255  0.379-  31 1.80  20 1.89   1 2.02
 123  0.498  0.248  0.129-  32 1.82  19 1.83  21 1.94
 124  0.340  0.376  0.439-  23 1.89  20 1.90   1 1.92
 125  0.664  0.376  0.048-  39 1.82  36 1.95  21 1.96
 126  0.170  0.248  0.279-  15 1.86  20 2.01  30 2.06  18 2.11
 127  0.831  0.242  0.219-  16 1.83  29 2.01  21 2.03  17 2.20
 128  0.000  0.376  0.371-  35 1.83  15 1.83  17 1.99
 129  0.997  0.375  0.127-  38 1.83  16 1.84  18 1.93
 130  0.840  0.248  0.449-  10 1.82  17 1.92  29 1.93
 131  0.160  0.248  0.051-  11 1.82  30 1.93  18 1.94
 132  0.674  0.124  0.783-  27 1.87  45 1.99  13 2.08  37 2.09
 133  0.328  0.124  0.717-  26 1.88  46 2.00  25 2.05  47 2.11
 134  0.660  0.376  0.561-  41 1.89  37 1.90   1 1.92
 135  0.674  0.626  0.784-   4 1.87   6 1.99  41 2.07  63 2.10
 136  0.164  0.752  0.053-  56 1.83  51 1.94  14 1.94
 137  0.837  0.751  0.447-  57 1.82  50 1.93  12 1.95
 138  0.997  0.876  0.128-  28 1.83  49 1.83  51 1.94
 139  0.004  0.876  0.372-   2 1.83  48 1.83  50 1.94
 140  0.827  0.752  0.219-  49 1.86  55 2.01  50 2.06  12 2.10
 141  0.173  0.752  0.281-  48 1.86  54 2.04  51 2.05  14 2.09
 142  0.663  0.876  0.054-  60 1.82  34 1.96  55 1.96
 143  0.337  0.876  0.447-  61 1.83  33 1.94  54 1.94
 144  0.496  0.750  0.127-  53 1.83  22 1.84  55 1.93
 145  0.505  0.746  0.373-  52 1.84  24 1.89  54 1.92
 146  0.329  0.875  0.220-  53 1.86  51 2.01  33 2.09  54 2.10
 147  0.671  0.875  0.281-  52 1.86  50 2.02  34 2.07  55 2.08
 148  0.163  0.751  0.553-  48 1.82  59 1.93   5 1.95
 149  0.836  0.752  0.947-  49 1.83  58 1.94   6 1.94
 150  0.996  0.876  0.628-  44 1.83  57 1.83  59 1.94
 151  0.003  0.876  0.872-  43 1.83  56 1.83  58 1.94
 152  0.827  0.752  0.719-  57 1.86  63 2.04  58 2.05   6 2.09
 153  0.173  0.752  0.781-  56 1.86  62 2.01  59 2.06   5 2.10
 154  0.663  0.876  0.553-  52 1.83  13 1.94  63 1.94
 155  0.337  0.876  0.946-  53 1.82  25 1.96  62 1.96
 156  0.495  0.746  0.627-  61 1.84   3 1.89  63 1.92
 157  0.504  0.750  0.873-  60 1.83   4 1.84  62 1.93
 158  0.329  0.875  0.719-  61 1.86  59 2.02  25 2.07  62 2.08
 159  0.671  0.875  0.780-  60 1.86  58 2.01  13 2.09  63 2.10
 
  LATTYP: Found a simple monoclinic cell.
 ALAT       =    14.6889751464
 B/A-ratio  =     0.8259161174
 C/A-ratio  =     1.5972413798
 COS(beta)  =    -0.9171837574
  
  Lattice vectors:
  
 A1 = ( -11.8609006218,   0.0000000000,  -8.6651617002)
 A2 = (   0.0000000000, -12.1318613217,   0.0000000000)
 A3 = (  11.8609006218,   0.0000000000,  20.2429474736)


Analysis of symmetry for initial positions (statically):
=====================================================================
 Subroutine PRICEL returns:
 Original cell was already a primitive cell.
 

 Routine SETGRP: Setting up the symmetry group for a 
 simple monoclinic supercell.


 Subroutine GETGRP returns: Found  2 space group operations
 (whereof  2 operations were pure point group operations)
 out of a pool of  4 trial point group operations.


The static configuration has the point symmetry C_2 .


Analysis of symmetry for dynamics (positions and initial velocities):
=====================================================================
 Subroutine PRICEL returns:
 Original cell was already a primitive cell.
 

 Routine SETGRP: Setting up the symmetry group for a 
 simple monoclinic supercell.


 Subroutine GETGRP returns: Found  2 space group operations
 (whereof  2 operations were pure point group operations)
 out of a pool of  4 trial point group operations.


The dynamic configuration has the point symmetry C_2 .


 Subroutine INISYM returns: Found  2 space group operations
 (whereof  2 operations are pure point group operations),
 and found     1 'primitive' translations

 
 
 KPOINTS: KPOINTS created by Atomic Simulation Env
  k-points in reciprocal lattice
Space group operators:
 irot       det(A)        alpha          n_x          n_y          n_z        tau_x        tau_y        tau_z
    1     1.000000     0.000000     1.000000     0.000000     0.000000     0.000000     0.000000     0.000000
    2     1.000000   180.000000     0.000000     1.000000     0.000000     0.000000     0.000000     0.000000

 ----------------------------------------------------------------------------- 
|                                                                             |
|           W    W    AA    RRRRR   N    N  II  N    N   GGGG   !!!           |
|           W    W   A  A   R    R  NN   N  II  NN   N  G    G  !!!           |
|           W    W  A    A  R    R  N N  N  II  N N  N  G       !!!           |
|           W WW W  AAAAAA  RRRRR   N  N N  II  N  N N  G  GGG   !            |
|           WW  WW  A    A  R   R   N   NN  II  N   NN  G    G                |
|           W    W  A    A  R    R  N    N  II  N    N   GGGG   !!!           |
|                                                                             |
|      Your generating k-point grid is not commensurate to the symmetry       |
|      of the lattice.  This can cause   slow convergence with respect        |
|      to k-points for HF type calculations                                   |
|      suggested SOLUTIONS:                                                   |
|       ) if not already the case, use automatic k-point generation           |
|       ) shift your grid to Gamma (G) (e.g. required for hex or fcc lattice) |
|                                                                             |
 ----------------------------------------------------------------------------- 

 
 Subroutine IBZKPT_HF returns following result:
 ==============================================
 
 Found      4 k-points in 1st BZ
 the following      4 k-points will be used (e.g. in the exchange kernel)
 Following reciprocal coordinates:   # in IRBZ
  0.250000  0.250000  0.250000    0.25000000   1 t-inv F
 -0.250000  0.250000 -0.250000    0.25000000   1 t-inv F
 -0.250000 -0.250000 -0.250000    0.25000000   1 t-inv T
  0.250000 -0.250000  0.250000    0.25000000   1 t-inv T


--------------------------------------------------------------------------------------------------------




 Dimension of arrays:
   k-points           NKPTS =      1   k-points in BZ     NKDIM =      4   number of bands    NBANDS=    864
   number of dos      NEDOS =    301   number of ions     NIONS =    159
   non local maximal  LDIM  =      6   non local SUM 2l+1 LMDIM =     18
   total plane-waves  NPLWV = 216000
   max r-space proj   IRMAX =   1478   max aug-charges    IRDMAX=   5112
   dimension x,y,z NGX =    60 NGY =   60 NGZ =   60
   dimension x,y,z NGXF=   120 NGYF=  120 NGZF=  120
   support grid    NGXF=   120 NGYF=  120 NGZF=  120
   ions per type =              63  96
 NGX,Y,Z   is equivalent  to a cutoff of   8.17,  8.22,  8.62 a.u.
 NGXF,Y,Z  is equivalent  to a cutoff of  16.33, 16.44, 17.23 a.u.


 I would recommend the setting:
   dimension x,y,z NGX =    60 NGY =   59 NGZ =   57
 SYSTEM =  unknown system                          
 POSCAR =  Ga  O                                   

 Startparameter for this run:
   NWRITE =      2    write-flag & timer
   PREC   = normal    normal or accurate (medium, high low for compatibility)
   ISTART =      1    job   : 0-new  1-cont  2-samecut
   ICHARG =      0    charge: 1-file 2-atom 10-const
   ISPIN  =      1    spin polarized calculation?
   LNONCOLLINEAR =      F non collinear calculations
   LSORBIT =      F    spin-orbit coupling
   INIWAV =      1    electr: 0-lowe 1-rand  2-diag
   LASPH  =      F    aspherical Exc in radial PAW
   METAGGA=      F    non-selfconsistent MetaGGA calc.

 Electronic Relaxation 1
   ENCUT  =  400.0 eV  29.40 Ry    5.42 a.u.  19.92 19.78 18.88*2*pi/ulx,y,z
   ENINI  =  400.0     initial cutoff
   ENAUG  =  605.4 eV  augmentation charge cutoff
   NELM   =     40;   NELMIN=  2; NELMDL=  0     # of ELM steps 
   EDIFF  = 0.1E-03   stopping-criterion for ELM
   LREAL  =      T    real-space projection
   NLSPLINE    = F    spline interpolate recip. space projectors
   LCOMPAT=      F    compatible to vasp.4.4
   GGA_COMPAT  = T    GGA compatible to vasp.4.4-vasp.4.6
   LMAXPAW     = -100 max onsite density
   LMAXMIX     =    2 max onsite mixed and CHGCAR
   VOSKOWN=      0    Vosko Wilk Nusair interpolation
   ROPT   =   -0.00050  -0.00050
 Ionic relaxation
   EDIFFG = 0.1E-02   stopping-criterion for IOM
   NSW    =     45    number of steps for IOM
   NBLOCK =      1;   KBLOCK =     45    inner block; outer block 
   IBRION =      2    ionic relax: 0-MD 1-quasi-New 2-CG
   NFREE  =      1    steps in history (QN), initial steepest desc. (CG)
   ISIF   =      0    stress and relaxation
   IWAVPR =     11    prediction:  0-non 1-charg 2-wave 3-comb
   ISYM   =      3    0-nonsym 1-usesym 2-fastsym
   LCORR  =      T    Harris-Foulkes like correction to forces

   POTIM  = 0.3500    time-step for ionic-motion
   TEIN   =    0.0    initial temperature
   TEBEG  =    0.0;   TEEND  =   0.0 temperature during run
   SMASS  =  -3.00    Nose mass-parameter (am)
   estimated Nose-frequenzy (Omega)   =  0.10E-29 period in steps =****** mass=  -0.341E-26a.u.
   SCALEE = 1.0000    scale energy and forces
   NPACO  =    256;   APACO  = 16.0  distance and # of slots for P.C.
   PSTRESS=    0.0 pullay stress

  Mass of Ions in am
   POMASS =  69.72 16.00
  Ionic Valenz
   ZVAL   =  13.00  6.00
  Atomic Wigner-Seitz radii
   RWIGS  =  -1.00 -1.00
  virtual crystal weights 
   VCA    =   1.00  1.00
   NELECT =    1398.0000    total number of electrons
   NUPDOWN=      -1.0000    fix difference up-down

 DOS related values:
   EMIN   =  10.00;   EMAX   =-10.00  energy-range for DOS
   EFERMI =   0.00
   ISMEAR =     0;   SIGMA  =   0.05  broadening in eV -4-tet -1-fermi 0-gaus

 Electronic relaxation 2 (details)
   IALGO  =     58    algorithm
   LDIAG  =      T    sub-space diagonalisation (order eigenvalues)
   LSUBROT=      F    optimize rotation matrix (better conditioning)
   TURBO    =      0    0=normal 1=particle mesh
   IRESTART =      0    0=no restart 2=restart with 2 vectors
   NREBOOT  =      0    no. of reboots
   NMIN     =      0    reboot dimension
   EREF     =   0.00    reference energy to select bands
   IMIX   =      4    mixing-type and parameters
     AMIX     =   0.40;   BMIX     =  1.00
     AMIX_MAG =   1.60;   BMIX_MAG =  1.00
     AMIN     =   0.10
     WC   =   100.;   INIMIX=   1;  MIXPRE=   1;  MAXMIX= -45

 Intra band minimization:
   WEIMIN = 0.0010     energy-eigenvalue tresh-hold
   EBREAK =  0.29E-07  absolut break condition
   DEPER  =   0.30     relativ break condition  

   TIME   =   0.40     timestep for ELM

  volume/ion in A,a.u.               =      10.48        70.71
  Fermi-wavevector in a.u.,A,eV,Ry     =   1.544141  2.918004 32.441352  2.384372
  Thomas-Fermi vector in A             =   2.649704
 
 Write flags
   LWAVE  =      T    write WAVECAR
   LCHARG =      F    write CHGCAR
   LVTOT  =      F    write LOCPOT, total local potential
   LVHAR  =      T    write LOCPOT, Hartree potential only
   LELF   =      F    write electronic localiz. function (ELF)
   LORBIT =     10    0 simple, 1 ext, 2 COOP (PROOUT)


 Dipole corrections
   LMONO  =      F    monopole corrections only (constant potential shift)
   LDIPOL =      F    correct potential (dipole corrections)
   IDIPOL =      0    1-x, 2-y, 3-z, 4-all directions 
   EPSILON=  1.0000000 bulk dielectric constant

 Exchange correlation treatment:
   GGA     =    --    GGA type
   LEXCH   =     8    internal setting for exchange type
   VOSKOWN=      0    Vosko Wilk Nusair interpolation
   EXXOEP  =     0    0=HF, 1=EXX-LHF (local Hartree Fock) 2=EXX OEP
   LHFCALC =     T    Hartree Fock is set to
   LSYMGRAD=     F    symmetrize gradient (conserves proper symmetry)
   PRECFOCK=fast      Normal, Fast or Accurate (Low or Medium for compatibility)
   LRHFCALC=     F    long range Hartree Fock
   LRSCOR  =     F    long range correlation only (use DFT for short range part)
   LTHOMAS =     F    Thomas Fermi screening in HF
   LMODELHF=     F    short range full HF, long range fraction AEXX
   ENCUT4O =  -1.0   cutoff for four orbital integrals eV
   LMAXFOCK=     4    L truncation for augmentation on plane wave grid
   LMAXFOCKAE=  -1    L truncation for all-electron charge restoration on plane wave grid
   NMAXFOCKAE=   1    number of basis functions for all-electron charge restoration
   LFOCKAEDFT=     F  apply the AE augmentation even for DFT
   NKREDX  =     1    reduce k-point grid by
   NKREDY  =     1    reduce k-point grid by
   NKREDZ  =     1    reduce k-point grid by
   SHIFTRED=     F    shift reduced grid of Gamma
   HFKIDENT=     F    idential grid for each k-point
   ODDONLY =     F    use only odd q-grid points
   EVENONLY=     F    use only even q-grid points
   HFALPHA =   -1.0000 decay constant for conv. correction
   MCALPHA =    0.0000 extent of test-charge in conv. correction in multipole expansion
   AEXX    =    0.3200 exact exchange contribution
   HFSCREEN=    0.2000 screening length (either q_TF or 0.3 A-1)
   HFSCREENC=   0.2000 screening length for correlation (either q_TF or 0.3 A-1)
   HFRCUT  =    0.0000 spherical cutoff for potential kernel
   ALDAX   =    0.6800 LDA exchange part
   AGGAX   =    0.6800 GGA exchange part
   ALDAC   =    1.0000 LDA correlation
   AGGAC   =    1.0000 GGA correlation
   NBANDSGWLOW=     1    first orbital included in HF term
   ENCUTFOCK=  -1.0 apply spherical cutoff to Coloumb kernel
 Linear response parameters
   LEPSILON=     F    determine dielectric tensor
   LRPA    =     F    only Hartree local field effects (RPA)
   LNABLA  =     F    use nabla operator in PAW spheres
   LVEL    =     F    velocity operator in full k-point grid
   LINTERFAST=   F  fast interpolation
   KINTER  =     0    interpolate to denser k-point grid
   CSHIFT  =0.1000    complex shift for real part using Kramers Kronig
   OMEGAMAX=  -1.0    maximum frequency
   DEG_THRESHOLD= 0.2000000E-02 threshold for treating states as degnerate
   RTIME   =    0.100 relaxation time in fs

 Orbital magnetization related:
   ORBITALMAG=     F  switch on orbital magnetization
   LCHIMAG   =     F  perturbation theory with respect to B field
   DQ        =  0.001000  dq finite difference perturbation B field



--------------------------------------------------------------------------------------------------------


 conjugate gradient relaxation of ions
 charge density and potential will be updated during run
 non-spin polarized calculation
 Conjugate gradient for all bands (Freysoldt, et al. PRB 79, 241103 (2009))
 preconditioned conjugated gradient                                        
 perform sub-space diagonalisation
    before iterative eigenvector-optimisation
 modified Broyden-mixing scheme, WC =      100.0
 initial mixing is a Kerker type mixing with AMIX =  0.4000 and BMIX =      1.0000
 Hartree-type preconditioning will be used
 using additional bands          165
 real space projection scheme for non local part
 use partial core corrections
 no Harris-corrections to forces 
 use gradient corrections 
 use of overlap-Matrix (Vanderbilt PP)
 Gauss-broadening in eV      SIGMA  =   0.05


--------------------------------------------------------------------------------------------------------


  energy-cutoff  :      400.00
  volume of cell :     1665.98
      direct lattice vectors                 reciprocal lattice vectors
    11.860900622  0.000000000 -2.912624073     0.084310630  0.000000000  0.000000000
     0.000000000 12.131861322  0.000000000     0.000000000  0.082427583  0.000000000
     0.000000000  0.000000000 11.577785773     0.021210029  0.000000000  0.086372301

  length of vectors
    12.213285494 12.131861322 11.577785773     0.084310630  0.082427583  0.088938404


 
 old parameters found on file WAVECAR:
  energy-cutoff  :      400.00
  volume of cell :     1665.98
      direct lattice vectors                 reciprocal lattice vectors
    11.860900622  0.000000000 -2.912624073     0.084310630  0.000000000  0.000000000
     0.000000000 12.131861322  0.000000000     0.000000000  0.082427583  0.000000000
     0.000000000  0.000000000 11.577785773     0.021210029  0.000000000  0.086372301

  length of vectors

 
 k-points in units of 2pi/SCALE and weight: KPOINTS created by Atomic Simulation Env
   0.02638016  0.02060690  0.02159308       1.000
 
 k-points in reciprocal lattice and weights: KPOINTS created by Atomic Simulation Env
   0.25000000  0.25000000  0.25000000       1.000
 
 position of ions in fractional coordinates (direct lattice) 
   0.50000000  0.37594435  0.50000000
   0.09106173  0.99994735  0.39656212
   0.41146913  0.61399131  0.60165131
   0.58936346  0.62385086  0.89813047
   0.16006549  0.62450702  0.65601815
   0.84060502  0.62567250  0.84481686
   0.91276487  0.49988923  0.60563913
   0.08820465  0.50127986  0.89449265
   0.84113242  0.37491622  0.84797413
   0.91402598  0.25000877  0.60575155
   0.08718866  0.24845472  0.89436535
   0.83993451  0.62450702  0.34398185
   0.65665981  0.00108213  0.65430523
   0.15939498  0.62567250  0.15518314
   0.08597402  0.25000877  0.39424845
   0.91281134  0.24845472  0.10563465
   0.83358152  0.37496631  0.34867910
   0.15886758  0.37491622  0.15202587
   0.41399826  0.37479672  0.10730403
   0.33746547  0.24960723  0.34160949
   0.66130969  0.25488143  0.15999743
   0.41063654  0.62385086  0.10186953
   0.33747616  0.50074549  0.34036704
   0.58853087  0.61399131  0.39834869
   0.34172823  0.00164091  0.84181693
   0.41249230  0.13588617  0.60197239
   0.58968329  0.12551567  0.89831443
   0.90917703  0.99954054  0.10395012
   0.83980222  0.12492930  0.34380267
   0.15958316  0.12390360  0.15567704
   0.58750770  0.13588617  0.39802761
   0.41031671  0.12551567  0.10168557
   0.34334019  0.00108213  0.34569477
   0.65827177  0.00164091  0.15818307
   0.08723513  0.49988923  0.39436087
   0.66115611  0.49526386  0.16023635
   0.66253453  0.24960723  0.65839051
   0.91179535  0.50127986  0.10550735
   0.58600174  0.37479672  0.89269597
   0.16641848  0.37496631  0.65132090
   0.66252384  0.50074549  0.65963296
   0.33884389  0.49526386  0.83976365
   0.09082297  0.99954054  0.89604988
   0.90893827  0.99994735  0.60343788
   0.84041684  0.12390360  0.84432296
   0.16019778  0.12492930  0.65619733
   0.33869031  0.25488143  0.84000257
   0.08988842  0.75036104  0.39639438
   0.91055959  0.75098339  0.10411719
   0.84037987  0.87540171  0.34342006
   0.16054554  0.87544041  0.15748843
   0.58742730  0.87471479  0.39571944
   0.40993199  0.87510121  0.10267468
   0.34281881  0.74897298  0.34635360
   0.65870982  0.74861829  0.15733967
   0.08944041  0.75098339  0.89588281
   0.91011158  0.75036104  0.60360562
   0.83945446  0.87544041  0.84251157
   0.15962013  0.87540171  0.65657994
   0.59006801  0.87510121  0.89732532
   0.41257270  0.87471479  0.60428056
   0.34129018  0.74861829  0.84266033
   0.65718119  0.74897298  0.65364640
   0.67933330  0.37543440  0.78965242
   0.31844538  0.37533919  0.72879113
   0.50206152  0.24843776  0.87138601
   0.16050539  0.50154409  0.05124281
   0.49796241  0.50081937  0.12883398
   0.99778242  0.62683647  0.12722833
   0.50203759  0.50081937  0.87116602
   0.50340563  0.49683023  0.62093496
   0.33618306  0.62380336  0.94533002
   0.66932110  0.62587110  0.55364091
   0.16870532  0.50647430  0.78027032
   0.83060568  0.50119821  0.72168356
   0.00221758  0.62683647  0.87277167
   0.99696435  0.62616131  0.62817655
   0.83949461  0.50154409  0.94875719
   0.16060212  0.50143853  0.55072078
   0.67255634  0.62511824  0.28278469
   0.32577027  0.62573811  0.21634615
   0.49659437  0.49683023  0.37906504
   0.50329188  0.25464652  0.62075277
   0.33067890  0.62587110  0.44635909
   0.66381694  0.62380336  0.05466998
   0.16939432  0.50119821  0.27831644
   0.83129468  0.50647430  0.21972968
   0.00303565  0.62616131  0.37182345
   0.83939788  0.50143853  0.44927922
   0.33582496  0.37561053  0.95191649
   0.68155462  0.37533919  0.27120887
   0.16875230  0.24219343  0.78074196
   0.17278966  0.99853472  0.78050288
   0.82707766  0.99897220  0.71963321
   0.00206229  0.12210195  0.87264660
   0.99702709  0.12267984  0.62835210
   0.83501277  0.99902723  0.94735967
   0.16332095  0.99919556  0.55331129
   0.67207251  0.12415809  0.28295645
   0.32632822  0.12356238  0.21685806
   0.66839448  0.12307028  0.55331533
   0.50459905  0.00260962  0.37292041
   0.33160552  0.12307028  0.44668467
   0.66381391  0.12489223  0.05475641
   0.17292234  0.99897220  0.28036679
   0.82721034  0.99853472  0.21949712
   0.00297291  0.12267984  0.37164790
   0.99793771  0.12210195  0.12735340
   0.83667905  0.99919556  0.44668871
   0.16498723  0.99902723  0.05264033
   0.49616511  0.99991452  0.12722006
   0.33618609  0.12489223  0.94524359
   0.49540095  0.00260962  0.62707959
   0.50383489  0.99991452  0.87277994
   0.83046623  0.24827905  0.72107802
   0.00294710  0.37543922  0.87274959
   0.99998612  0.37558505  0.62928168
   0.84003779  0.24758385  0.94869570
   0.15975873  0.24786417  0.55073662
   0.32744366  0.62511824  0.71721531
   0.32066670  0.37543440  0.21034758
   0.49670812  0.25464652  0.37924723
   0.49793848  0.24843776  0.12861399
   0.33963236  0.37595066  0.43914181
   0.66417504  0.37561053  0.04808351
   0.16953377  0.24827905  0.27892198
   0.83124770  0.24219343  0.21925804
   0.00001388  0.37558505  0.37071832
   0.99705290  0.37543922  0.12725041
   0.84024127  0.24786417  0.44926338
   0.15996221  0.24758385  0.05130430
   0.67367178  0.12356238  0.78314194
   0.32792749  0.12415809  0.71704355
   0.66036764  0.37595066  0.56085819
   0.67422973  0.62573811  0.78365385
   0.16401932  0.75166356  0.05259291
   0.83745736  0.75123188  0.44660483
   0.99728869  0.87594033  0.12758308
   0.00356220  0.87578358  0.37175193
   0.82737469  0.75212373  0.21899387
   0.17268428  0.75173795  0.28062204
   0.66347871  0.87575171  0.05418242
   0.33735273  0.87550247  0.44714239
   0.49618873  0.74997757  0.12695307
   0.50451277  0.74617414  0.37302607
   0.32881409  0.87545344  0.21964914
   0.67144416  0.87540066  0.28092665
   0.16254264  0.75123188  0.55339517
   0.83598068  0.75166356  0.94740709
   0.99643780  0.87578358  0.62824807
   0.00271131  0.87594033  0.87241692
   0.82731572  0.75173795  0.71937796
   0.17262531  0.75212373  0.78100613
   0.66264727  0.87550247  0.55285761
   0.33652129  0.87575171  0.94581758
   0.49548723  0.74617414  0.62697393
   0.50381127  0.74997757  0.87304693
   0.32855584  0.87540066  0.71907335
   0.67118591  0.87545344  0.78035086
 
 position of ions in cartesian coordinates  (Angst):
   5.93045031  4.56090471  4.33258085
   1.08007418 12.13122260  4.32608269
   4.88039441  7.44885737  5.76733514
   6.99038140  7.56847217  8.68176799
   1.89852087  7.57643259  7.12902705
   9.97033256  7.59057206  7.33274221
  10.82621345  6.06458686  4.35341916
   1.04618659  6.08145775 10.09933733
   9.97658808  4.54843163  7.36776022
  10.84117130  3.03307176  4.35104758
   1.03413608  3.01421823 10.10082265
   9.96237975  7.57643259  1.53613465
   7.78857673  0.01312826  5.66280266
   1.89056806  7.59057206  1.33241949
   1.01972932  3.03307176  4.31411412
  10.82676455  3.01421823 -1.43566095
   9.88702758  4.54903925  1.60902230
   1.88431255  4.54843163  1.29740148
   4.91039224  4.54698178  0.03652181
   4.00264445  3.02820032  2.97217142
   7.84372850  3.09218622 -0.07373060
   4.87051922  7.56847217 -0.01660629
   4.00277119  6.07497490  2.95775552
   6.98050621  7.44885737  2.89782656
   4.05320462  0.01990727  8.75105023
   4.89253017  1.64855211  5.76807243
   6.99417488  1.52273872  8.68296624
  10.78365837 12.12628725 -1.44457870
   9.96081073  1.51562490  1.53444551
   1.89279998  1.50318124  1.33758965
   6.96837045  1.64855211  2.89708927
   4.86672574  1.52273872 -0.01780454
   4.07232389  0.01312826  3.00235904
   7.80769601  0.01990727 -0.08588853
   1.03468718  6.06458686  4.31174254
   7.84190695  6.00847244 -0.07051707
   7.85825617  3.02820032  5.69299028
  10.81471403  6.08145775 -1.43417563
   6.95050838  4.54698178  8.62863989
   1.97387304  4.54903925  7.05613940
   7.85812944  6.07497490  5.70740618
   4.01899368  6.00847244  8.73567878
   1.07724225 12.12628725 10.10974040
  10.78082644 12.13122260  4.33907901
   9.96810064  1.50318124  7.32757205
   1.90008989  1.51562490  7.13071619
   4.01717212  3.09218622  8.73889230
   1.06615764  9.10327609  4.32755804
  10.80005677  9.11082631 -1.44667120
   9.96766208 10.62025214  1.52833324
   1.90421465 10.62072159  1.35575848
   6.96741677 10.61191848  2.87059999
   4.86216262 10.61660655 -0.00523239
   4.06613989  9.08643634  3.01150541
   7.81289166  9.08213324 -0.09692906
   1.06084385  9.11082631 10.11183290
  10.79474298  9.10327609  4.33760366
   9.95668597 10.62072159  7.30940322
   1.89323854 10.62025214  7.13682846
   6.99873800 10.61660655  8.67039409
   4.89348385 10.61191848  5.79456171
   4.04800896  9.08213324  8.76209076
   7.79476073  9.08643634  5.65365629
   8.05750475  4.55471804  7.16378406
   3.77704897  4.55356301  7.51027596
   5.95490182  3.01401247  8.62640412
   1.90373845  6.08466329  0.12578637
   5.90628261  6.07587108  0.04123490
  11.83459814  7.60469312 -1.43314271
   5.95461801  6.07587108  8.62392680
   5.97084413  6.02747546  5.72282058
   3.98743387  7.56789587  9.96565359
   7.93875107  7.59298138  4.46045511
   2.00099704  6.14447600  8.54242742
   9.85173137  6.08046713  5.93625562
   0.02630248  7.60469312 10.09830441
  11.82489507  7.59650223  4.36911121
   9.95716217  6.08466329  8.53937533
   1.90488575  6.08338276  5.90835365
   7.97712396  7.58384785  1.31511681
   3.86392883  7.59136794  1.55596306
   5.89005649  6.02747546  2.94234112
   5.96949496  3.08933631  5.72104249
   3.92214955  7.59298138  4.20470659
   7.87346676  7.56789587 -1.30049188
   2.00916925  6.08046713  2.72890608
   9.85990358  6.14447600  0.12273428
   0.03600555  7.59650223  4.29605049
   9.95601487  6.08338276  2.75680805
   3.98318653  4.55685492 10.04295331
   8.08385165  4.55356301  1.15488574
   2.00155429  2.93825713  8.54775115
   2.04944104 12.11408478  8.53322380
   9.80988598 12.11939225  5.92279278
   0.02446066  1.48132390 10.09730866
  11.82563924  1.48833477  4.37096096
   9.90400347 12.12005977  8.53624900
   1.93713353 12.12210201  5.93042704
   7.97138526  1.50626871  1.31851459
   3.87054656  1.49904171  1.56026479
   7.92776055  1.49307154  4.45938446
   5.98499913  0.03165951  2.84788531
   3.93314008  1.49307154  4.20577724
   7.87343080  1.51517528 -1.29948242
   2.05101464 12.11939225  2.74236892
   9.81145959 12.11408478  0.13193790
   0.03526139  1.48833477  4.29420074
  11.83643997  1.48132390 -1.43214696
   9.92376710 12.12210201  2.73473466
   1.95689715 12.12005977  0.12891270
   5.88496505 12.13082429  0.02778416
   3.98746982  1.51517528  9.96464412
   5.87590149  0.03165951  5.81727639
   5.97593557 12.13082429  8.63737754
   9.85007745  3.01208699  5.92965088
   0.03495521  4.55477654 10.09592395
  11.86073597  4.55654576  4.37310483
   9.96360472  3.00365297  8.53708135
   1.89488243  3.00705372  5.91099344
   3.88377667  7.58384785  7.35004489
   3.80339588  4.55471804  1.50137764
   5.89140566  3.08933631  2.94411921
   5.90599880  3.01401247  0.03875758
   4.02834567  4.56098127  4.09506843
   7.87771409  4.55685492 -1.37779161
   2.01082317  3.01208699  2.73551082
   9.85934634  2.93825713  0.11741055
   0.00016465  4.55654576  4.29205687
  11.82594541  4.55477654 -1.43076225
   9.96601820  3.00705372  2.75416826
   1.89729590  3.00365297  0.12808035
   7.99035407  1.49904171  7.10489691
   3.88951536  1.50626871  7.34664711
   7.83255495  4.56098127  4.57009328
   7.99697179  7.59136794  7.10919864
   1.94541681  9.11907808  0.13118281
   9.93299857  9.11384095  2.73149653
  11.82874206 10.62678666 -1.42759752
   0.04225085 10.62488496  4.29368887
   9.81340895  9.12466080  0.12563268
   2.04819103  9.11998051  2.74601743
   7.86945501 10.62449833 -1.30515164
   4.00130719 10.62147452  4.19433715
   5.88524523  9.09862388  0.02462426
   5.98397580  9.05248116  2.84935988
   3.90003127 10.62087972  1.58533884
   7.96393246 10.62023942  1.29684418
   1.92790205  9.11384095  5.93366517
   9.91548381  9.11907808  8.53397889
  11.81864978 10.62488496  4.37147283
   0.03215856 10.62678666 10.09275922
   9.81270959  9.11998051  5.91914427
   2.04749168  9.12466080  8.53952902
   7.85959344 10.62147452  4.47082455
   3.99144562 10.62449833  9.97031334
   5.87692482  9.05248116  5.81580182
   5.97565539  9.09862388  8.64053744
   3.89696816 10.62023942  7.36831752
   7.96086935 10.62087972  7.07982286
 


--------------------------------------------------------------------------------------------------------


 k-point  1 :   0.2500 0.2500 0.2500  plane waves:   30269

 maximum and minimum number of plane-waves per node :     30269    30269

 maximum number of plane-waves:     30269
 maximum index in each direction: 
   IXMAX=   19   IYMAX=   19   IZMAX=   18
   IXMIN=  -20   IYMIN=  -20   IZMIN=  -19

 WARNING: aliasing errors must be expected set NGX to  80 to avoid them
 WARNING: aliasing errors must be expected set NGY to  80 to avoid them
 WARNING: aliasing errors must be expected set NGZ to  76 to avoid them
 aliasing errors are usually negligible using standard VASP settings
 and one can safely disregard these warnings

 serial   3D FFT for wavefunctions
 parallel 3D FFT for charge:
    minimum data exchange during FFTs selected (reduces bandwidth)


 FFT grid for exact exchange (Hartree Fock) 
  NGX = 42; NGY = 42; NGZ = 40

 
 Radii for the augmentation spheres in the non-local exchange
 for species   1 augmentation radius   1.277 (default was   1.031)
       energy cutoff for augmentation   1600.0
 for species   2 augmentation radius   0.820 (default was   0.722)
       energy cutoff for augmentation   1600.0
 Maximum index for augmentation-charges in exchange          381
  SETUP_FOCK is finished

 total amount of memory used by VASP on root node    80777. kBytes
========================================================================

   base      :      30000. kBytes
   nonlr-proj:      32574. kBytes
   fftplans  :       1403. kBytes
   grid      :       9513. kBytes
   one-center:       2472. kBytes
   HF        :        129. kBytes
   wavefun   :       4686. kBytes
 
     INWAV:  cpu time    1.2754: real time    1.2759
 Broyden mixing: mesh for mixing (old mesh)
   NGX = 39   NGY = 39   NGZ = 37
  (NGX  =120   NGY  =120   NGZ  =120)
  gives a total of  56277 points

 charge density for first step will be calculated from the start-wavefunctions


--------------------------------------------------------------------------------------------------------


 Maximum index for non-local projection operator         1399
 Maximum index for augmentation-charges          168 (set IRDMAX)


--------------------------------------------------------------------------------------------------------


 initial charge from wavefunction
 First call to EWALD:  gamma=   0.150
 Maximum number of real-space cells 3x 3x 3
 Maximum number of reciprocal cells 3x 3x 3

 FEWALD executed in parallel
    FEWALD:  cpu time    0.0050: real time    0.0051


----------------------------------------- Iteration    1(   1)  ---------------------------------------


    POTLOK:  cpu time    0.0537: real time    0.0540
    SETDIJ:  cpu time    0.3448: real time    0.3449
    TRIAL :  cpu time   69.3642: real time   69.4155
    CORREC:  cpu time   68.6831: real time   68.7172
    CHARGE:  cpu time    0.1105: real time    0.1105
    --------------------------------------------
      LOOP:  cpu time  138.5660: real time  138.6554

 eigenvalue-minimisations  :     0
 total energy-change (2. order) :-0.1489947E+04  (-0.8159388E-05)
 number of electron    1398.0003212 magnetization 
 augmentation part      606.1390426 magnetization 

 Free energy of the ion-electron system (eV)
  ---------------------------------------------------
  alpha Z        PSCENC =      9368.91501797
  Ewald energy   TEWEN  =   -116398.54010854
  -Hartree energ DENC   =    -45376.17352323
  -exchange      EXHF   =      5251.24784734
  -V(xc)+E(xc)   XCENC  =      4732.40120660
  PAW double counting   =    126682.28287416  -148247.62773743
  entropy T*S    EENTRO =        -0.00000000
  eigenvalues    EBANDS =    -13680.78462670
  atomic energy  EATOM  =    176178.33200529
  ---------------------------------------------------
  free energy    TOTEN  =     -1489.94704454 eV

  energy without entropy =    -1489.94704454  energy(sigma->0) =    -1489.94704454
  exchange ACFDT corr.  =         0.00000000  see jH, gK, PRB 81, 115126


--------------------------------------------------------------------------------------------------------




----------------------------------------- Iteration    1(   2)  ---------------------------------------


    POTLOK:  cpu time    0.0481: real time    0.0481
    SETDIJ:  cpu time    0.3473: real time    0.3474
    TRIAL :  cpu time   68.3518: real time   68.4013
    CORREC:  cpu time   68.2415: real time   68.2732
    CHARGE:  cpu time    0.1102: real time    0.1109
    --------------------------------------------
      LOOP:  cpu time  137.1016: real time  137.1900

 eigenvalue-minimisations  :     0
 total energy-change (2. order) :-0.8126124E-05  (-0.5129667E-05)
 number of electron    1398.0003212 magnetization 
 augmentation part      606.1386192 magnetization 

 Free energy of the ion-electron system (eV)
  ---------------------------------------------------
  alpha Z        PSCENC =      9368.91501797
  Ewald energy   TEWEN  =   -116398.54010854
  -Hartree energ DENC   =    -45376.21865919
  -exchange      EXHF   =      5251.24902367
  -V(xc)+E(xc)   XCENC  =      4732.40248862
  PAW double counting   =    126682.33205564  -148247.72674474
  entropy T*S    EENTRO =        -0.00000000
  eigenvalues    EBANDS =    -13680.69213138
  atomic energy  EATOM  =    176178.33200529
  ---------------------------------------------------
  free energy    TOTEN  =     -1489.94705266 eV

  energy without entropy =    -1489.94705266  energy(sigma->0) =    -1489.94705266
  exchange ACFDT corr.  =         0.00000000  see jH, gK, PRB 81, 115126


--------------------------------------------------------------------------------------------------------


  average scaling for gradient   0.9678


 average (electrostatic) potential at core
  the test charge radii are     1.0314  0.7215
  (the norm of the test charge is              1.0000)
       1 -19.2955       2 -20.4473       3 -20.0348       4 -20.3829       5 -20.3052
       6 -20.4122       7 -20.3782       8 -20.3527       9 -20.3011      10 -20.4030
      11 -20.3771      12 -20.3052      13 -20.3192      14 -20.4122      15 -20.4030
      16 -20.3771      17 -20.0070      18 -20.3011      19 -20.0359      20 -19.9115
      21 -19.9351      22 -20.3829      23 -19.8638      24 -20.0348      25 -20.3441
      26 -20.0580      27 -20.3594      28 -20.4987      29 -20.2644      30 -20.3779
      31 -20.0580      32 -20.3594      33 -20.3192      34 -20.3441      35 -20.3782
      36 -19.8876      37 -19.9115      38 -20.3527      39 -20.0359      40 -20.0070
      41 -19.8638      42 -19.8876      43 -20.4987      44 -20.4473      45 -20.3779
      46 -20.2644      47 -19.9351      48 -20.4901      49 -20.5395      50 -20.3998
      51 -20.4472      52 -20.3970      53 -20.4665      54 -20.3754      55 -20.4103
      56 -20.5395      57 -20.4901      58 -20.4472      59 -20.3998      60 -20.4665
      61 -20.3970      62 -20.4103      63 -20.3754      64 -63.5446      65 -62.3399
      66 -63.5512      67 -63.4024      68 -63.5375      69 -63.8032      70 -63.5375
      71 -62.5732      72 -63.3099      73 -63.1546      74 -63.5514      75 -63.8347
      76 -63.8032      77 -63.7363      78 -63.4024      79 -63.3238      80 -63.7078
      81 -63.9150      82 -62.5732      83 -62.5992      84 -63.1546      85 -63.3099
      86 -63.8347      87 -63.5514      88 -63.7363      89 -63.3238      90 -62.9380
      91 -62.3399      92 -63.5561      93 -63.9450      94 -63.9443      95 -63.7680
      96 -63.7056      97 -63.5020      98 -63.4403      99 -63.6808     100 -63.8877
     101 -63.1483     102 -63.5232     103 -63.1483     104 -63.2838     105 -63.9443
     106 -63.9450     107 -63.7056     108 -63.7680     109 -63.4403     110 -63.5020
     111 -63.7530     112 -63.2838     113 -63.5232     114 -63.7530     115 -63.8554
     116 -63.7828     117 -63.6392     118 -63.4157     119 -63.3387     120 -63.7078
     121 -63.5446     122 -62.5992     123 -63.5512     124 -62.4118     125 -62.9380
     126 -63.8554     127 -63.5561     128 -63.6392     129 -63.7828     130 -63.3387
     131 -63.4157     132 -63.8877     133 -63.6808     134 -62.4118     135 -63.9150
     136 -63.5349     137 -63.4705     138 -63.8291     139 -63.7764     140 -63.9638
     141 -63.9578     142 -63.4172     143 -63.4482     144 -63.7870     145 -63.5448
     146 -63.9118     147 -63.8933     148 -63.4705     149 -63.5349     150 -63.7764
     151 -63.8291     152 -63.9578     153 -63.9638     154 -63.4482     155 -63.4172
     156 -63.5448     157 -63.7870     158 -63.8933     159 -63.9118
 
 
 
 E-fermi :   1.5253     XC(G=0):  -8.8512     alpha+bet :-11.1776


 k-point     1 :       0.2500    0.2500    0.2500
  band No.  band energies     occupation 
      1     -20.2123      2.00000
      2     -20.0595      2.00000
      3     -20.0140      2.00000
      4     -19.9632      2.00000
      5     -19.8405      2.00000
      6     -19.8129      2.00000
      7     -19.7132      2.00000
      8     -19.6201      2.00000
      9     -19.5727      2.00000
     10     -19.5676      2.00000
     11     -19.5146      2.00000
     12     -19.4649      2.00000
     13     -19.3983      2.00000
     14     -19.3909      2.00000
     15     -19.3782      2.00000
     16     -19.3068      2.00000
     17     -19.2935      2.00000
     18     -19.2881      2.00000
     19     -19.2627      2.00000
     20     -19.2398      2.00000
     21     -19.1986      2.00000
     22     -19.1943      2.00000
     23     -19.1777      2.00000
     24     -19.1583      2.00000
     25     -19.1428      2.00000
     26     -19.1267      2.00000
     27     -19.1072      2.00000
     28     -19.0869      2.00000
     29     -19.0671      2.00000
     30     -19.0604      2.00000
     31     -19.0316      2.00000
     32     -19.0099      2.00000
     33     -19.0071      2.00000
     34     -18.9882      2.00000
     35     -18.9667      2.00000
     36     -18.9568      2.00000
     37     -18.9390      2.00000
     38     -18.9162      2.00000
     39     -18.9072      2.00000
     40     -18.8966      2.00000
     41     -18.8755      2.00000
     42     -18.8641      2.00000
     43     -18.8461      2.00000
     44     -18.8258      2.00000
     45     -18.8152      2.00000
     46     -18.8075      2.00000
     47     -18.7919      2.00000
     48     -18.7838      2.00000
     49     -18.7768      2.00000
     50     -18.7602      2.00000
     51     -18.7296      2.00000
     52     -18.7231      2.00000
     53     -18.7107      2.00000
     54     -18.7014      2.00000
     55     -18.6932      2.00000
     56     -18.6805      2.00000
     57     -18.6700      2.00000
     58     -18.6574      2.00000
     59     -18.6482      2.00000
     60     -18.6294      2.00000
     61     -18.6274      2.00000
     62     -18.6200      2.00000
     63     -18.6131      2.00000
     64     -18.6037      2.00000
     65     -18.5966      2.00000
     66     -18.5908      2.00000
     67     -18.5753      2.00000
     68     -18.5677      2.00000
     69     -18.5573      2.00000
     70     -18.5527      2.00000
     71     -18.5287      2.00000
     72     -18.5205      2.00000
     73     -18.4998      2.00000
     74     -18.4965      2.00000
     75     -18.4916      2.00000
     76     -18.4860      2.00000
     77     -18.4632      2.00000
     78     -18.4610      2.00000
     79     -18.4189      2.00000
     80     -18.3769      2.00000
     81     -18.3559      2.00000
     82     -18.3529      2.00000
     83     -18.3345      2.00000
     84     -18.3223      2.00000
     85     -18.3064      2.00000
     86     -18.2866      2.00000
     87     -18.2284      2.00000
     88     -18.1874      2.00000
     89     -18.1720      2.00000
     90     -17.8993      2.00000
     91     -17.8943      2.00000
     92     -17.8200      2.00000
     93     -17.7220      2.00000
     94     -17.6566      2.00000
     95     -17.6432      2.00000
     96     -17.5753      2.00000
     97     -14.5986      2.00000
     98     -14.5635      2.00000
     99     -14.5564      2.00000
    100     -14.5451      2.00000
    101     -14.5263      2.00000
    102     -14.5219      2.00000
    103     -14.5195      2.00000
    104     -14.5154      2.00000
    105     -14.5094      2.00000
    106     -14.5024      2.00000
    107     -14.4963      2.00000
    108     -14.4892      2.00000
    109     -14.4867      2.00000
    110     -14.4808      2.00000
    111     -14.4766      2.00000
    112     -14.4686      2.00000
    113     -14.4663      2.00000
    114     -14.4627      2.00000
    115     -14.4609      2.00000
    116     -14.4578      2.00000
    117     -14.4535      2.00000
    118     -14.4504      2.00000
    119     -14.4410      2.00000
    120     -14.4326      2.00000
    121     -14.4311      2.00000
    122     -14.4286      2.00000
    123     -14.4256      2.00000
    124     -14.4190      2.00000
    125     -14.4177      2.00000
    126     -14.4147      2.00000
    127     -14.4117      2.00000
    128     -14.4091      2.00000
    129     -14.4069      2.00000
    130     -14.4042      2.00000
    131     -14.4012      2.00000
    132     -14.3964      2.00000
    133     -14.3908      2.00000
    134     -14.3905      2.00000
    135     -14.3851      2.00000
    136     -14.3821      2.00000
    137     -14.3792      2.00000
    138     -14.3757      2.00000
    139     -14.3733      2.00000
    140     -14.3697      2.00000
    141     -14.3667      2.00000
    142     -14.3653      2.00000
    143     -14.3607      2.00000
    144     -14.3553      2.00000
    145     -14.3546      2.00000
    146     -14.3509      2.00000
    147     -14.3490      2.00000
    148     -14.3484      2.00000
    149     -14.3455      2.00000
    150     -14.3415      2.00000
    151     -14.3388      2.00000
    152     -14.3371      2.00000
    153     -14.3338      2.00000
    154     -14.3313      2.00000
    155     -14.3300      2.00000
    156     -14.3242      2.00000
    157     -14.3207      2.00000
    158     -14.3197      2.00000
    159     -14.3136      2.00000
    160     -14.3092      2.00000
    161     -14.3085      2.00000
    162     -14.3065      2.00000
    163     -14.3012      2.00000
    164     -14.2983      2.00000
    165     -14.2962      2.00000
    166     -14.2921      2.00000
    167     -14.2899      2.00000
    168     -14.2850      2.00000
    169     -14.2814      2.00000
    170     -14.2797      2.00000
    171     -14.2760      2.00000
    172     -14.2727      2.00000
    173     -14.2697      2.00000
    174     -14.2664      2.00000
    175     -14.2636      2.00000
    176     -14.2620      2.00000
    177     -14.2601      2.00000
    178     -14.2580      2.00000
    179     -14.2540      2.00000
    180     -14.2530      2.00000
    181     -14.2491      2.00000
    182     -14.2483      2.00000
    183     -14.2458      2.00000
    184     -14.2411      2.00000
    185     -14.2397      2.00000
    186     -14.2379      2.00000
    187     -14.2367      2.00000
    188     -14.2327      2.00000
    189     -14.2286      2.00000
    190     -14.2251      2.00000
    191     -14.2216      2.00000
    192     -14.2184      2.00000
    193     -14.2171      2.00000
    194     -14.2133      2.00000
    195     -14.2121      2.00000
    196     -14.2097      2.00000
    197     -14.2065      2.00000
    198     -14.2038      2.00000
    199     -14.2015      2.00000
    200     -14.1994      2.00000
    201     -14.1971      2.00000
    202     -14.1950      2.00000
    203     -14.1931      2.00000
    204     -14.1914      2.00000
    205     -14.1902      2.00000
    206     -14.1879      2.00000
    207     -14.1848      2.00000
    208     -14.1835      2.00000
    209     -14.1813      2.00000
    210     -14.1788      2.00000
    211     -14.1766      2.00000
    212     -14.1751      2.00000
    213     -14.1736      2.00000
    214     -14.1715      2.00000
    215     -14.1693      2.00000
    216     -14.1674      2.00000
    217     -14.1664      2.00000
    218     -14.1619      2.00000
    219     -14.1589      2.00000
    220     -14.1568      2.00000
    221     -14.1544      2.00000
    222     -14.1528      2.00000
    223     -14.1490      2.00000
    224     -14.1485      2.00000
    225     -14.1453      2.00000
    226     -14.1429      2.00000
    227     -14.1386      2.00000
    228     -14.1368      2.00000
    229     -14.1351      2.00000
    230     -14.1330      2.00000
    231     -14.1313      2.00000
    232     -14.1304      2.00000
    233     -14.1277      2.00000
    234     -14.1244      2.00000
    235     -14.1223      2.00000
    236     -14.1182      2.00000
    237     -14.1162      2.00000
    238     -14.1128      2.00000
    239     -14.1112      2.00000
    240     -14.1099      2.00000
    241     -14.1078      2.00000
    242     -14.1039      2.00000
    243     -14.1022      2.00000
    244     -14.1000      2.00000
    245     -14.0985      2.00000
    246     -14.0981      2.00000
    247     -14.0960      2.00000
    248     -14.0932      2.00000
    249     -14.0917      2.00000
    250     -14.0903      2.00000
    251     -14.0880      2.00000
    252     -14.0867      2.00000
    253     -14.0838      2.00000
    254     -14.0807      2.00000
    255     -14.0794      2.00000
    256     -14.0749      2.00000
    257     -14.0725      2.00000
    258     -14.0698      2.00000
    259     -14.0671      2.00000
    260     -14.0648      2.00000
    261     -14.0597      2.00000
    262     -14.0563      2.00000
    263     -14.0548      2.00000
    264     -14.0519      2.00000
    265     -14.0506      2.00000
    266     -14.0465      2.00000
    267     -14.0448      2.00000
    268     -14.0425      2.00000
    269     -14.0409      2.00000
    270     -14.0354      2.00000
    271     -14.0336      2.00000
    272     -14.0320      2.00000
    273     -14.0269      2.00000
    274     -14.0243      2.00000
    275     -14.0213      2.00000
    276     -14.0194      2.00000
    277     -14.0167      2.00000
    278     -14.0120      2.00000
    279     -14.0109      2.00000
    280     -14.0079      2.00000
    281     -14.0060      2.00000
    282     -14.0040      2.00000
    283     -13.9998      2.00000
    284     -13.9971      2.00000
    285     -13.9938      2.00000
    286     -13.9905      2.00000
    287     -13.9856      2.00000
    288     -13.9778      2.00000
    289     -13.9755      2.00000
    290     -13.9666      2.00000
    291     -13.9634      2.00000
    292     -13.9541      2.00000
    293     -13.9461      2.00000
    294     -13.9408      2.00000
    295     -13.9299      2.00000
    296     -13.9198      2.00000
    297     -13.9174      2.00000
    298     -13.9111      2.00000
    299     -13.9047      2.00000
    300     -13.9032      2.00000
    301     -13.8983      2.00000
    302     -13.8941      2.00000
    303     -13.8903      2.00000
    304     -13.8848      2.00000
    305     -13.8798      2.00000
    306     -13.8749      2.00000
    307     -13.8686      2.00000
    308     -13.8637      2.00000
    309     -13.8565      2.00000
    310     -13.8506      2.00000
    311     -13.8460      2.00000
    312     -13.8417      2.00000
    313     -13.8376      2.00000
    314     -13.8362      2.00000
    315     -13.8333      2.00000
    316     -13.8316      2.00000
    317     -13.8222      2.00000
    318     -13.8188      2.00000
    319     -13.8144      2.00000
    320     -13.8097      2.00000
    321     -13.8061      2.00000
    322     -13.8028      2.00000
    323     -13.7909      2.00000
    324     -13.7813      2.00000
    325     -13.7758      2.00000
    326     -13.7698      2.00000
    327     -13.7619      2.00000
    328     -13.7561      2.00000
    329     -13.7507      2.00000
    330     -13.7393      2.00000
    331     -13.7278      2.00000
    332     -13.7205      2.00000
    333     -13.7149      2.00000
    334     -13.7098      2.00000
    335     -13.7041      2.00000
    336     -13.6976      2.00000
    337     -13.6930      2.00000
    338     -13.6843      2.00000
    339     -13.6761      2.00000
    340     -13.6733      2.00000
    341     -13.6689      2.00000
    342     -13.6647      2.00000
    343     -13.6553      2.00000
    344     -13.6489      2.00000
    345     -13.6464      2.00000
    346     -13.6420      2.00000
    347     -13.6394      2.00000
    348     -13.6360      2.00000
    349     -13.6344      2.00000
    350     -13.6290      2.00000
    351     -13.6259      2.00000
    352     -13.6207      2.00000
    353     -13.6164      2.00000
    354     -13.6130      2.00000
    355     -13.6050      2.00000
    356     -13.5989      2.00000
    357     -13.5946      2.00000
    358     -13.5916      2.00000
    359     -13.5865      2.00000
    360     -13.5847      2.00000
    361     -13.5796      2.00000
    362     -13.5731      2.00000
    363     -13.5709      2.00000
    364     -13.5675      2.00000
    365     -13.5608      2.00000
    366     -13.5513      2.00000
    367     -13.5337      2.00000
    368     -13.5256      2.00000
    369     -13.5171      2.00000
    370     -13.4972      2.00000
    371     -13.4898      2.00000
    372     -13.4768      2.00000
    373     -13.4651      2.00000
    374     -13.4577      2.00000
    375     -13.4488      2.00000
    376     -13.4191      2.00000
    377     -13.4162      2.00000
    378     -13.4051      2.00000
    379     -13.3961      2.00000
    380     -13.3786      2.00000
    381     -13.3547      2.00000
    382     -13.3485      2.00000
    383     -13.3354      2.00000
    384     -13.3300      2.00000
    385     -13.3116      2.00000
    386     -13.2989      2.00000
    387     -13.2949      2.00000
    388     -13.2579      2.00000
    389     -13.2449      2.00000
    390     -13.2306      2.00000
    391     -13.2114      2.00000
    392     -13.1912      2.00000
    393     -13.1681      2.00000
    394     -13.1608      2.00000
    395     -13.1284      2.00000
    396     -13.1128      2.00000
    397     -13.0977      2.00000
    398     -13.0711      2.00000
    399     -13.0519      2.00000
    400     -13.0315      2.00000
    401     -13.0158      2.00000
    402     -12.9972      2.00000
    403     -12.9961      2.00000
    404     -12.9751      2.00000
    405     -12.9436      2.00000
    406     -12.9126      2.00000
    407     -12.8673      2.00000
    408     -12.7889      2.00000
    409     -12.7285      2.00000
    410     -12.6234      2.00000
    411     -12.3438      2.00000
    412      -6.7447      2.00000
    413      -6.5262      2.00000
    414      -6.4599      2.00000
    415      -6.4387      2.00000
    416      -6.4039      2.00000
    417      -6.3139      2.00000
    418      -6.2261      2.00000
    419      -6.1410      2.00000
    420      -6.1215      2.00000
    421      -6.0313      2.00000
    422      -6.0291      2.00000
    423      -5.9937      2.00000
    424      -5.9659      2.00000
    425      -5.9301      2.00000
    426      -5.8967      2.00000
    427      -5.8769      2.00000
    428      -5.8403      2.00000
    429      -5.8226      2.00000
    430      -5.8042      2.00000
    431      -5.7877      2.00000
    432      -5.7560      2.00000
    433      -5.7213      2.00000
    434      -5.6721      2.00000
    435      -5.6456      2.00000
    436      -5.6141      2.00000
    437      -5.5963      2.00000
    438      -5.5285      2.00000
    439      -5.4688      2.00000
    440      -5.4388      2.00000
    441      -5.4020      2.00000
    442      -5.3652      2.00000
    443      -5.3512      2.00000
    444      -5.3315      2.00000
    445      -5.2536      2.00000
    446      -5.2243      2.00000
    447      -5.2025      2.00000
    448      -5.1266      2.00000
    449      -5.1033      2.00000
    450      -5.0584      2.00000
    451      -5.0007      2.00000
    452      -4.9295      2.00000
    453      -4.9167      2.00000
    454      -4.8491      2.00000
    455      -4.8105      2.00000
    456      -4.7091      2.00000
    457      -4.6579      2.00000
    458      -4.6405      2.00000
    459      -4.6174      2.00000
    460      -4.5791      2.00000
    461      -4.5668      2.00000
    462      -4.4916      2.00000
    463      -4.4887      2.00000
    464      -4.4684      2.00000
    465      -4.3987      2.00000
    466      -4.3653      2.00000
    467      -4.3120      2.00000
    468      -4.3035      2.00000
    469      -4.2667      2.00000
    470      -4.2090      2.00000
    471      -4.1281      2.00000
    472      -4.1192      2.00000
    473      -4.0333      2.00000
    474      -4.0088      2.00000
    475      -3.9916      2.00000
    476      -3.9794      2.00000
    477      -3.9222      2.00000
    478      -3.8636      2.00000
    479      -3.8416      2.00000
    480      -3.8100      2.00000
    481      -3.7650      2.00000
    482      -3.7485      2.00000
    483      -3.7372      2.00000
    484      -3.6840      2.00000
    485      -3.6512      2.00000
    486      -3.6375      2.00000
    487      -3.6226      2.00000
    488      -3.5218      2.00000
    489      -3.5011      2.00000
    490      -3.4851      2.00000
    491      -3.4799      2.00000
    492      -3.4660      2.00000
    493      -3.4469      2.00000
    494      -3.3963      2.00000
    495      -3.3607      2.00000
    496      -3.3504      2.00000
    497      -3.3415      2.00000
    498      -3.3201      2.00000
    499      -3.2590      2.00000
    500      -3.2353      2.00000
    501      -3.1972      2.00000
    502      -3.1774      2.00000
    503      -3.1074      2.00000
    504      -3.0850      2.00000
    505      -3.0580      2.00000
    506      -3.0147      2.00000
    507      -3.0006      2.00000
    508      -2.9496      2.00000
    509      -2.9262      2.00000
    510      -2.9019      2.00000
    511      -2.8799      2.00000
    512      -2.8557      2.00000
    513      -2.8240      2.00000
    514      -2.8164      2.00000
    515      -2.7715      2.00000
    516      -2.7519      2.00000
    517      -2.7176      2.00000
    518      -2.6960      2.00000
    519      -2.6848      2.00000
    520      -2.6402      2.00000
    521      -2.6307      2.00000
    522      -2.6255      2.00000
    523      -2.5910      2.00000
    524      -2.5768      2.00000
    525      -2.5582      2.00000
    526      -2.5447      2.00000
    527      -2.4968      2.00000
    528      -2.4789      2.00000
    529      -2.4481      2.00000
    530      -2.4270      2.00000
    531      -2.4133      2.00000
    532      -2.4066      2.00000
    533      -2.3782      2.00000
    534      -2.3383      2.00000
    535      -2.3336      2.00000
    536      -2.3146      2.00000
    537      -2.2814      2.00000
    538      -2.2653      2.00000
    539      -2.2482      2.00000
    540      -2.2129      2.00000
    541      -2.1943      2.00000
    542      -2.1793      2.00000
    543      -2.1600      2.00000
    544      -2.1511      2.00000
    545      -2.1410      2.00000
    546      -2.1115      2.00000
    547      -2.0935      2.00000
    548      -2.0771      2.00000
    549      -2.0486      2.00000
    550      -2.0078      2.00000
    551      -1.9978      2.00000
    552      -1.9638      2.00000
    553      -1.9011      2.00000
    554      -1.8905      2.00000
    555      -1.8728      2.00000
    556      -1.8535      2.00000
    557      -1.8288      2.00000
    558      -1.8008      2.00000
    559      -1.7695      2.00000
    560      -1.7512      2.00000
    561      -1.7035      2.00000
    562      -1.6874      2.00000
    563      -1.6599      2.00000
    564      -1.6570      2.00000
    565      -1.6319      2.00000
    566      -1.6204      2.00000
    567      -1.6032      2.00000
    568      -1.5807      2.00000
    569      -1.5530      2.00000
    570      -1.5333      2.00000
    571      -1.5159      2.00000
    572      -1.4929      2.00000
    573      -1.4681      2.00000
    574      -1.4601      2.00000
    575      -1.4444      2.00000
    576      -1.4083      2.00000
    577      -1.3607      2.00000
    578      -1.3431      2.00000
    579      -1.3351      2.00000
    580      -1.3242      2.00000
    581      -1.3105      2.00000
    582      -1.2820      2.00000
    583      -1.2678      2.00000
    584      -1.2563      2.00000
    585      -1.2258      2.00000
    586      -1.2035      2.00000
    587      -1.1821      2.00000
    588      -1.1609      2.00000
    589      -1.1341      2.00000
    590      -1.1276      2.00000
    591      -1.0847      2.00000
    592      -1.0820      2.00000
    593      -1.0432      2.00000
    594      -1.0339      2.00000
    595      -1.0192      2.00000
    596      -1.0113      2.00000
    597      -0.9846      2.00000
    598      -0.9336      2.00000
    599      -0.9033      2.00000
    600      -0.8778      2.00000
    601      -0.8726      2.00000
    602      -0.8572      2.00000
    603      -0.8220      2.00000
    604      -0.8121      2.00000
    605      -0.7882      2.00000
    606      -0.7578      2.00000
    607      -0.7457      2.00000
    608      -0.7317      2.00000
    609      -0.7161      2.00000
    610      -0.7052      2.00000
    611      -0.6927      2.00000
    612      -0.6875      2.00000
    613      -0.6684      2.00000
    614      -0.6403      2.00000
    615      -0.6201      2.00000
    616      -0.6049      2.00000
    617      -0.5930      2.00000
    618      -0.5737      2.00000
    619      -0.5515      2.00000
    620      -0.5478      2.00000
    621      -0.5381      2.00000
    622      -0.5078      2.00000
    623      -0.4919      2.00000
    624      -0.4805      2.00000
    625      -0.4715      2.00000
    626      -0.4534      2.00000
    627      -0.4422      2.00000
    628      -0.4176      2.00000
    629      -0.3983      2.00000
    630      -0.3955      2.00000
    631      -0.3679      2.00000
    632      -0.3619      2.00000
    633      -0.3387      2.00000
    634      -0.3267      2.00000
    635      -0.3124      2.00000
    636      -0.3072      2.00000
    637      -0.2854      2.00000
    638      -0.2702      2.00000
    639      -0.2525      2.00000
    640      -0.2411      2.00000
    641      -0.2319      2.00000
    642      -0.2204      2.00000
    643      -0.2084      2.00000
    644      -0.1918      2.00000
    645      -0.1782      2.00000
    646      -0.1671      2.00000
    647      -0.1606      2.00000
    648      -0.1558      2.00000
    649      -0.1355      2.00000
    650      -0.1215      2.00000
    651      -0.1163      2.00000
    652      -0.0922      2.00000
    653      -0.0752      2.00000
    654      -0.0724      2.00000
    655      -0.0482      2.00000
    656      -0.0460      2.00000
    657      -0.0290      2.00000
    658      -0.0214      2.00000
    659      -0.0145      2.00000
    660       0.0074      2.00000
    661       0.0108      2.00000
    662       0.0459      2.00000
    663       0.0512      2.00000
    664       0.0786      2.00000
    665       0.0849      2.00000
    666       0.1253      2.00000
    667       0.1365      2.00000
    668       0.1551      2.00000
    669       0.1646      2.00000
    670       0.1739      2.00000
    671       0.1897      2.00000
    672       0.1980      2.00000
    673       0.2088      2.00000
    674       0.2125      2.00000
    675       0.2374      2.00000
    676       0.2691      2.00000
    677       0.2816      2.00000
    678       0.3122      2.00000
    679       0.3434      2.00000
    680       0.3490      2.00000
    681       0.3708      2.00000
    682       0.3991      2.00000
    683       0.4070      2.00000
    684       0.4379      2.00000
    685       0.4549      2.00000
    686       0.4587      2.00000
    687       0.4756      2.00000
    688       0.5134      2.00000
    689       0.5448      2.00000
    690       0.5722      2.00000
    691       0.6057      2.00000
    692       0.6738      2.00000
    693       0.7748      2.00000
    694       0.8108      2.00000
    695       0.8678      2.00000
    696       0.9275      2.00000
    697       1.0317      2.00000
    698       1.1749      2.00000
    699       1.2289      2.00000
    700       6.2905      0.00000
    701       7.1756      0.00000
    702       7.3315      0.00000
    703       7.4390      0.00000
    704       8.0280      0.00000
[...]
      6.96826      1.64878      2.89699         0.001281     -0.004750     -0.001171
      4.86667      1.52324     -0.01780        -0.001802     -0.010758      0.001079
      4.07231      0.01314      3.00251         0.004001     -0.000131      0.003976
      7.80771      0.02001     -0.08589        -0.001928     -0.003049      0.001675
      1.03466      6.06433      4.31164         0.003874      0.009686      0.005118
      7.84208      6.00849     -0.07055         0.003605      0.001910     -0.000267
      7.85845      3.02834      5.69285        -0.002774     -0.000291     -0.005380
     10.81496      6.08116     -1.43405        -0.000088      0.013084      0.003865
      6.95052      4.54662      8.62856        -0.007365      0.007458      0.001986
      1.97381      4.54902      7.05609         0.000936      0.000014     -0.001350
      7.85812      6.07497      5.70760         0.002659     -0.001417      0.004834
      4.01882      6.00849      8.73571        -0.003605      0.001910      0.000267
      1.07713     12.12641     10.10995         0.006019     -0.006310     -0.003703
     10.78096     12.13121      4.33923        -0.002099     -0.001841     -0.005721
      9.96812      1.50338      7.32752        -0.002298     -0.004687     -0.001935
      1.90015      1.51590      7.13080         0.003060     -0.003135      0.000169
      4.01713      3.09212      8.73897        -0.000701     -0.002938     -0.000156
      1.06613      9.10347      4.32751        -0.004113      0.001384     -0.005238
     10.80003      9.11102     -1.44673        -0.002482      0.002246      0.002044
      9.96766     10.62010      1.52834        -0.003825     -0.000203     -0.000051
      1.90424     10.62078      1.35583         0.004755      0.001576      0.003005
      6.96729     10.61150      2.87049        -0.003213      0.004726     -0.006652
      4.86217     10.61649     -0.00524         0.000376     -0.003544     -0.001401
      4.06638      9.08617      3.01151         0.004056     -0.000360      0.000290
      7.81283      9.08202     -0.09686        -0.000946      0.001422      0.001383
      1.06087      9.11102     10.11189         0.002482      0.002246     -0.002044
     10.79477      9.10347      4.33765         0.004113      0.001384      0.005238
      9.95666     10.62078      7.30933        -0.004755      0.001576     -0.003005
      1.89324     10.62010      7.13682         0.003825     -0.000203      0.000051
      6.99873     10.61649      8.67040        -0.000376     -0.003544      0.001401
      4.89361     10.61150      5.79467         0.003213      0.004726      0.006652
      4.04807      9.08202      8.76203         0.000946      0.001422     -0.001383
      7.79452      9.08617      5.65366        -0.004056     -0.000360     -0.000290
      8.05760      4.55471      7.16399         0.008292     -0.000388      0.003780
      3.77701      4.55345      7.51028        -0.001994     -0.003085      0.001197
      5.95499      3.01386      8.62632        -0.006213      0.000744     -0.001817
      1.90365      6.08484      0.12577        -0.005104      0.001323     -0.006225
      5.90646      6.07622      0.04130        -0.001447     -0.008566      0.003309
     11.83469      7.60489     -1.43312        -0.000841      0.003722      0.000739
      5.95444      6.07622      8.62386         0.001447     -0.008566     -0.003309
      5.97076      6.02752      5.72295         0.003157     -0.005709      0.001152
      3.98752      7.56806      9.96570        -0.001737      0.000020     -0.002138
      7.93901      7.59285      4.46051         0.007201     -0.007938     -0.000070
      2.00089      6.14453      8.54227        -0.004823     -0.001117     -0.001117
      9.85203      6.08050      5.93638         0.005948     -0.001442      0.008103
      0.02621      7.60489     10.09828         0.000841      0.003722     -0.000739
     11.82501      7.59658      4.36919        -0.002387     -0.001928      0.002774
      9.95725      6.08484      8.53939         0.005104      0.001323      0.006225
      1.90507      6.08342      5.90858         0.001369     -0.001231     -0.004788
      7.97730      7.58378      1.31502         0.004369     -0.005347      0.001490
      3.86394      7.59137      1.55586        -0.002201     -0.002390     -0.001019
      5.89014      6.02752      2.94221        -0.003157     -0.005709     -0.001152
      5.96923      3.08925      5.72124         0.005933      0.013233      0.002629
      3.92189      7.59285      4.20465        -0.007201     -0.007938      0.000070
      7.87338      7.56806     -1.30054         0.001737      0.000020      0.002138
      2.00887      6.08050      2.72878        -0.005948     -0.001442     -0.008103
      9.86001      6.14453      0.12290         0.004823     -0.001117      0.001117
      0.03589      7.59658      4.29597         0.002387     -0.001928     -0.002774
      9.95583      6.08342      2.75658        -0.001369     -0.001231      0.004788
      3.98323      4.55681     10.04290         0.001857     -0.002076      0.001932
      8.08389      4.55345      1.15488         0.001994     -0.003085     -0.001197
      2.00162      2.93821      8.54762        -0.004450      0.001009      0.003287
      2.04968     12.11407      8.53311         0.003896      0.000811      0.004628
      9.80972     12.11938      5.92268        -0.006486      0.000140     -0.002774
      0.02447      1.48090     10.09724        -0.001813      0.003975     -0.001133
     11.82579      1.48808      4.37090         0.001100      0.003410     -0.001179
      9.90391     12.11996      8.53636        -0.004447     -0.000050     -0.003539
      1.93733     12.12208      5.93056         0.003458     -0.000474     -0.004063
      7.97125      1.50638      1.31852        -0.002669      0.006579     -0.002290
      3.87056      1.49908      1.56038        -0.001837      0.005007      0.002288
      7.92763      1.49311      4.45932        -0.003723      0.005995     -0.002347
      5.98504      0.03181      2.84779         0.002391      0.004860     -0.005171
      3.93327      1.49311      4.20585         0.003723      0.005995      0.002347
      7.87352      1.51503     -1.29943         0.002317      0.001493     -0.002574
      2.05118     12.11938      2.74248         0.006486      0.000140      0.002774
      9.81122     12.11407      0.13206        -0.003896      0.000811     -0.004628
      0.03511      1.48808      4.29426        -0.001100      0.003410      0.001179
     11.83643      1.48090     -1.43208         0.001813      0.003975      0.001133
      9.92357     12.12208      2.73460        -0.003458     -0.000474      0.004063
      1.95699     12.11996      0.12880         0.004447     -0.000050      0.003539
      5.88498     12.13054      0.02774        -0.004291      0.008268     -0.002023
      3.98738      1.51503      9.96459        -0.002317      0.001493      0.002574
      5.87586      0.03181      5.81738        -0.002391      0.004860      0.005171
      5.97592     12.13054      8.63742         0.004291      0.008268      0.002023
      9.85009      3.01202      5.92958         0.004255     -0.000988      0.001342
      0.03510      4.55510     10.09592        -0.003560     -0.004826      0.000908
     11.86061      4.55675      4.37304         0.001871     -0.002264     -0.002080
      9.96375      3.00353      8.53712         0.006184     -0.001574      0.001090
      1.89490      3.00697      5.91107        -0.002964      0.000732     -0.003559
      3.88360      7.58378      7.35014        -0.004369     -0.005347     -0.001490
      3.80330      4.55471      1.50117        -0.008292     -0.000388     -0.003780
      5.89167      3.08925      2.94393        -0.005933      0.013233     -0.002629
      5.90591      3.01386      0.03884         0.006213      0.000744      0.001817
      4.02799      4.56097      4.09521        -0.009554      0.004528      0.001090
      7.87767      4.55681     -1.37773        -0.001857     -0.002076     -0.001932
      2.01081      3.01202      2.73558        -0.004255     -0.000988     -0.001342
      9.85928      2.93821      0.11754         0.004450      0.001009     -0.003287
      0.00029      4.55675      4.29212        -0.001871     -0.002264      0.002080
     11.82580      4.55510     -1.43076         0.003560     -0.004826     -0.000908
      9.96600      3.00697      2.75409         0.002964      0.000732      0.003559
      1.89715      3.00353      0.12804        -0.006184     -0.001574     -0.001090
      7.99034      1.49908      7.10478         0.001837      0.005007     -0.002288
      3.88965      1.50638      7.34664         0.002669      0.006579      0.002290
      7.83291      4.56097      4.56995         0.009554      0.004528     -0.001090
      7.99696      7.59137      7.10930         0.002201     -0.002390      0.001019
      1.94547      9.11926      0.13112         0.002725      0.005824      0.000893
      9.93322      9.11388      2.73157         0.005424      0.001078     -0.000038
     11.82877     10.62679     -1.42760         0.002094      0.004523      0.000414
      0.04209     10.62499      4.29367        -0.002272      0.002867     -0.002376
      9.81329      9.12470      0.12566        -0.001862      0.002128     -0.001569
      2.04827      9.12004      2.74613         0.005426      0.004136      0.002739
      7.86928     10.62444     -1.30511        -0.004853     -0.002349      0.002520
      4.00204     10.62157      4.19436         0.024083     -0.003009     -0.003071
      5.88540      9.09856      0.02460        -0.001627     -0.008537      0.000344
      5.98416      9.05247      2.84938         0.001190     -0.018947      0.000704
      3.90015     10.62088      1.58534         0.004308     -0.001320      0.001587
      7.96385     10.62017      1.29684        -0.004678     -0.003728      0.002204
      1.92768      9.11388      5.93360        -0.005424      0.001078      0.000038
      9.91543      9.11926      8.53405        -0.002725      0.005824     -0.000893
     11.81881     10.62499      4.37149         0.002272      0.002867      0.002376
      0.03213     10.62679     10.09276        -0.002094      0.004523     -0.000414
      9.81263      9.12004      5.91903        -0.005426      0.004136     -0.002739
      2.04761      9.12470      8.53950         0.001862      0.002128      0.001569
      7.85886     10.62157      4.47080        -0.024083     -0.003009      0.003071
      3.99162     10.62444      9.97027         0.004853     -0.002349     -0.002520
      5.87674      9.05247      5.81578        -0.001190     -0.018947     -0.000704
      5.97550      9.09856      8.64056         0.001627     -0.008537     -0.000344
      3.89705     10.62017      7.36832         0.004678     -0.003728     -0.002204
      7.96075     10.62088      7.07982        -0.004308     -0.001320     -0.001587
 -----------------------------------------------------------------------------------
    total drift:                               -0.000005     -0.281852      0.000007


--------------------------------------------------------------------------------------------------------



  FREE ENERGIE OF THE ION-ELECTRON SYSTEM (eV)
  ---------------------------------------------------
  free  energy   TOTEN  =     -1489.94727745 eV

  energy  without entropy=    -1489.94727745  energy(sigma->0) =    -1489.94727745
 
 d Force = 0.2375647E-05[-0.394E-05, 0.869E-05]  d Energy = 0.1324644E-04-0.109E-04
 d Force =-0.4727463E-01[-0.473E-01,-0.472E-01]  d Ewald  =-0.4727593E-01 0.129E-05


--------------------------------------------------------------------------------------------------------


    POTLOK:  cpu time    0.4001: real time    0.4002


--------------------------------------------------------------------------------------------------------




--------------------------------------------------------------------------------------------------------


  
 reached required accuracy - stopping structural energy minimisation
 writing wavefunctions
     LOOP+:  cpu time  583.1339: real time  583.5497
    4ORBIT:  cpu time    0.0000: real time    0.0000
 


 total charge     
 
# of ion     s       p       d       tot
----------------------------------------
  1        0.675   0.851  10.288  11.814
  2        0.761   1.029  10.316  12.105
  3        0.750   0.984  10.291  12.025
  4        0.759   1.018  10.309  12.085
  5        0.659   0.838  10.279  11.776
  6        0.662   0.842  10.280  11.783
  7        0.759   1.022  10.312  12.094
  8        0.763   1.036  10.320  12.120
  9        0.665   0.847  10.283  11.796
 10        0.758   1.014  10.307  12.079
 11        0.762   1.028  10.315  12.104
 12        0.659   0.838  10.279  11.776
 13        0.662   0.837  10.275  11.774
 14        0.662   0.842  10.280  11.783
 15        0.758   1.014  10.307  12.079
 16        0.762   1.028  10.315  12.104
 17        0.679   0.847  10.272  11.798
 18        0.665   0.847  10.283  11.796
 19        0.762   1.035  10.319  12.117
 20        0.680   0.858  10.283  11.822
 21        0.664   0.832  10.272  11.767
 22        0.759   1.018  10.309  12.085
 23        0.681   0.869  10.291  11.841
 24        0.750   0.984  10.291  12.025
 25        0.658   0.834  10.275  11.767
 26        0.748   0.976  10.286  12.010
 27        0.759   1.021  10.311  12.091
 28        0.761   1.029  10.315  12.105
 29        0.660   0.844  10.283  11.787
 30        0.662   0.846  10.284  11.792
 31        0.748   0.976  10.286  12.010
 32        0.759   1.021  10.311  12.091
 33        0.662   0.837  10.275  11.774
 34        0.658   0.834  10.275  11.767
 35        0.759   1.022  10.312  12.094
 36        0.666   0.843  10.280  11.788
 37        0.680   0.858  10.283  11.822
 38        0.763   1.036  10.320  12.120
 39        0.762   1.035  10.319  12.117
 40        0.679   0.847  10.272  11.798
 41        0.681   0.869  10.291  11.841
 42        0.666   0.843  10.280  11.788
 43        0.761   1.029  10.315  12.105
 44        0.761   1.029  10.316  12.105
 45        0.662   0.846  10.284  11.792
 46        0.660   0.844  10.283  11.787
 47        0.664   0.832  10.272  11.767
 48        0.759   1.018  10.309  12.086
 49        0.759   1.020  10.310  12.089
 50        0.660   0.841  10.280  11.782
 51        0.659   0.838  10.279  11.775
 52        0.753   0.997  10.296  12.046
 53        0.760   1.021  10.310  12.090
 54        0.661   0.827  10.267  11.755
 55        0.656   0.822  10.267  11.746
 56        0.759   1.020  10.310  12.089
 57        0.759   1.018  10.309  12.086
 58        0.659   0.838  10.279  11.775
 59        0.660   0.841  10.280  11.782
 60        0.760   1.021  10.310  12.090
 61        0.753   0.997  10.296  12.046
 62        0.656   0.822  10.267  11.746
 63        0.661   0.827  10.267  11.755
 64        1.585   3.588   0.000   5.173
 65        1.589   3.574   0.000   5.162
 66        1.578   3.616   0.000   5.194
 67        1.580   3.596   0.000   5.176
 68        1.578   3.619   0.000   5.198
 69        1.579   3.622   0.000   5.200
 70        1.578   3.619   0.000   5.198
 71        1.583   3.591   0.000   5.174
 72        1.581   3.578   0.000   5.158
 73        1.581   3.582   0.000   5.162
 74        1.586   3.583   0.000   5.169
 75        1.585   3.578   0.000   5.163
 76        1.579   3.622   0.000   5.200
 77        1.579   3.619   0.000   5.197
 78        1.580   3.596   0.000   5.176
 79        1.579   3.596   0.000   5.176
 80        1.583   3.571   0.000   5.155
 81        1.584   3.575   0.000   5.159
 82        1.583   3.591   0.000   5.174
 83        1.583   3.585   0.000   5.168
 84        1.581   3.582   0.000   5.162
 85        1.581   3.578   0.000   5.158
 86        1.585   3.578   0.000   5.163
 87        1.586   3.583   0.000   5.169
 88        1.579   3.619   0.000   5.197
 89        1.579   3.596   0.000   5.176
 90        1.583   3.580   0.000   5.162
 91        1.589   3.574   0.000   5.162
 92        1.586   3.581   0.000   5.167
 93        1.585   3.582   0.000   5.166
 94        1.585   3.579   0.000   5.163
 95        1.579   3.624   0.000   5.203
 96        1.579   3.621   0.000   5.200
 97        1.581   3.590   0.000   5.171
 98        1.581   3.592   0.000   5.173
 99        1.583   3.572   0.000   5.155
100        1.584   3.575   0.000   5.159
101        1.581   3.582   0.000   5.163
102        1.577   3.603   0.000   5.180
103        1.581   3.582   0.000   5.163
104        1.581   3.578   0.000   5.159
105        1.585   3.579   0.000   5.163
106        1.585   3.582   0.000   5.166
107        1.579   3.621   0.000   5.200
108        1.579   3.624   0.000   5.203
109        1.581   3.592   0.000   5.173
110        1.581   3.590   0.000   5.171
111        1.579   3.620   0.000   5.199
112        1.581   3.578   0.000   5.159
113        1.577   3.603   0.000   5.180
114        1.579   3.620   0.000   5.199
115        1.584   3.574   0.000   5.158
116        1.578   3.617   0.000   5.195
117        1.579   3.602   0.000   5.182
118        1.580   3.593   0.000   5.173
119        1.579   3.594   0.000   5.172
120        1.583   3.571   0.000   5.155
121        1.585   3.588   0.000   5.173
122        1.583   3.585   0.000   5.168
123        1.578   3.616   0.000   5.194
124        1.589   3.569   0.000   5.158
125        1.583   3.580   0.000   5.162
126        1.584   3.574   0.000   5.158
127        1.586   3.581   0.000   5.167
128        1.579   3.602   0.000   5.182
129        1.578   3.617   0.000   5.195
130        1.579   3.594   0.000   5.172
131        1.580   3.593   0.000   5.173
132        1.584   3.575   0.000   5.159
133        1.583   3.572   0.000   5.155
134        1.589   3.569   0.000   5.158
135        1.584   3.575   0.000   5.159
136        1.580   3.586   0.000   5.166
137        1.580   3.588   0.000   5.168
138        1.579   3.618   0.000   5.196
139        1.578   3.617   0.000   5.195
140        1.584   3.576   0.000   5.160
141        1.584   3.573   0.000   5.158
142        1.581   3.580   0.000   5.160
143        1.581   3.585   0.000   5.166
144        1.578   3.615   0.000   5.193
145        1.577   3.599   0.000   5.176
146        1.585   3.572   0.000   5.157
147        1.584   3.575   0.000   5.159
148        1.580   3.588   0.000   5.168
149        1.580   3.586   0.000   5.166
150        1.578   3.617   0.000   5.195
151        1.579   3.618   0.000   5.196
152        1.584   3.573   0.000   5.158
153        1.584   3.576   0.000   5.160
154        1.581   3.585   0.000   5.166
155        1.581   3.580   0.000   5.160
156        1.577   3.599   0.000   5.176
157        1.578   3.615   0.000   5.193
158        1.584   3.575   0.000   5.159
159        1.585   3.572   0.000   5.157
------------------------------------------------
tot      196.523 403.045 648.4371248.005
 

 total amount of memory used by VASP on root node    90362. kBytes
========================================================================

   base      :      30000. kBytes
   nonlr-proj:      42159. kBytes
   fftplans  :       1403. kBytes
   grid      :       9513. kBytes
   one-center:       2472. kBytes
   HF        :        129. kBytes
   wavefun   :       4686. kBytes
 
  
  
 General timing and accounting informations for this job:
 ========================================================
  
                  Total CPU time used (sec):     1911.419
                            User time (sec):     1891.590
                          System time (sec):       19.829
                         Elapsed time (sec):     1914.507
  
                   Maximum memory used (kb):      614184.
                   Average memory used (kb):           0.
  
                          Minor page faults:      4397003
                          Major page faults:            6
                 Voluntary context switches:        20694
