 vasp.5.4.4.18Apr17-6-g9f103f2a35 (build Jun 06 2017 17:32:29) complex          
  
 executed on      LLNL_Quartz_ifc date 2021.09.04  00:25:37
 running on  288 total cores
 distrk:  each k-point on  288 cores,    1 groups
 distr:  one band on NCORES_PER_BAND=   8 cores,   36 groups


--------------------------------------------------------------------------------------------------------


 INCAR:
 POTCAR:   PAW_PBE Ga_d 06Sep2000                 
 POTCAR:   PAW_PBE Ir 06Sep2000                   
 POTCAR:   PAW_PBE O 08Apr2002                    

 ----------------------------------------------------------------------------- 
|                                                                             |
|           W    W    AA    RRRRR   N    N  II  N    N   GGGG   !!!           |
|           W    W   A  A   R    R  NN   N  II  NN   N  G    G  !!!           |
|           W    W  A    A  R    R  N N  N  II  N N  N  G       !!!           |
|           W WW W  AAAAAA  RRRRR   N  N N  II  N  N N  G  GGG   !            |
|           WW  WW  A    A  R   R   N   NN  II  N   NN  G    G                |
|           W    W  A    A  R    R  N    N  II  N    N   GGGG   !!!           |
|                                                                             |
|      For optimal performance we recommend to set                            |
|        NCORE= 4 - approx SQRT( number of cores)                             |
|      NCORE specifies how many cores store one orbital (NPAR=cpu/NCORE).     |
|      This setting can  greatly improve the performance of VASP for DFT.     |
|      The default,   NCORE=1            might be grossly inefficient         |
|      on modern multi-core architectures or massively parallel machines.     |
|      Do your own testing !!!!                                               |
|      Unfortunately you need to use the default for GW and RPA calculations. |
|      (for HF NCORE is supported but not extensively tested yet)             |
|                                                                             |
 ----------------------------------------------------------------------------- 

 POTCAR:   PAW_PBE Ga_d 06Sep2000                 
   VRHFIN =Ga: s2p1                                                             
   LEXCH  = PE                                                                  
   EATOM  =  2149.0616 eV,  157.9516 Ry                                         
                                                                                
   TITEL  = PAW_PBE Ga_d 06Sep2000                                              
   LULTRA =        F    use ultrasoft PP ?                                      
   IUNSCR =        1    unscreen: 0-lin 1-nonlin 2-no                           
   RPACOR =    2.000    partial core radius                                     
   POMASS =   69.723; ZVAL   =   13.000    mass and valenz                      
   RCORE  =    2.300    outmost cutoff radius                                   
   RWIGS  =    2.300; RWIGS  =    1.217    wigner-seitz radius (au A)           
   ENMAX  =  282.697; ENMIN  =  212.022 eV                                      
   ICORE  =        3    local potential                                         
   LCOR   =        T    correct aug charges                                     
   LPAW   =        T    paw PP                                                  
   EAUG   =  490.690                                                            
   DEXC   =    -.001                                                            
   RMAX   =    2.742    core radius for proj-oper                               
   RAUG   =    1.300    factor for augmentation sphere                          
   RDEP   =    2.413    radius for radial grids                                 
   QCUT   =   -4.558; QGAM   =    9.117    optimization parameters              
                                                                                
   Description                                                                  
     l     E      TYP  RCUT    TYP  RCUT                                        
     2   .000     23  2.300                                                     
     2  -.400     23  2.300                                                     
     0   .000     23  2.300                                                     
     0   .000     23  2.300                                                     
     1   .000     23  2.300                                                     
     1   .000     23  2.300                                                     
     3  -.100      7  2.300                                                     
  local pseudopotential read in
  partial core-charges read in
  atomic valenz-charges read in
  non local Contribution for L=           2  read in
    real space projection operators read in
  non local Contribution for L=           2  read in
    real space projection operators read in
  non local Contribution for L=           0  read in
    real space projection operators read in
  non local Contribution for L=           0  read in
    real space projection operators read in
  non local Contribution for L=           1  read in
    real space projection operators read in
  non local Contribution for L=           1  read in
    real space projection operators read in
    PAW grid and wavefunctions read in
 
   number of l-projection  operators is LMAX  =           6
   number of lm-projection operators is LMMAX =          18
 
 POTCAR:   PAW_PBE Ir 06Sep2000                   
   VRHFIN =Ir: s1d8                                                             
   LEXCH  = PE                                                                  
   EATOM  =   560.2052 eV,   41.1739 Ry                                         
                                                                                
   TITEL  = PAW_PBE Ir 06Sep2000                                                
   LULTRA =        F    use ultrasoft PP ?                                      
   IUNSCR =        1    unscreen: 0-lin 1-nonlin 2-no                           
   RPACOR =    2.250    partial core radius                                     
   POMASS =  192.220; ZVAL   =    9.000    mass and valenz                      
   RCORE  =    2.600    outmost cutoff radius                                   
   RWIGS  =    2.690; RWIGS  =    1.423    wigner-seitz radius (au A)           
   ENMAX  =  210.870; ENMIN  =  158.153 eV                                      
   RCLOC  =    1.857    cutoff for local pot                                    
   LCOR   =        T    correct aug charges                                     
   LPAW   =        T    paw PP                                                  
   EAUG   =  318.962                                                            
   DEXC   =    -.027                                                            
   RMAX   =    3.175    core radius for proj-oper                               
   RAUG   =    1.300    factor for augmentation sphere                          
   RDEP   =    2.748    radius for radial grids                                 
   QCUT   =   -3.937; QGAM   =    7.874    optimization parameters              
                                                                                
   Description                                                                  
     l     E      TYP  RCUT    TYP  RCUT                                        
     2   .000     23  2.600                                                     
     2   .000     23  2.600                                                     
     0   .000     23  2.600                                                     
     0   .000     23  2.600                                                     
     1  -.200     23  2.600                                                     
     1  1.500     23  2.600                                                     
     3   .000      7   .000                                                     
  local pseudopotential read in
  partial core-charges read in
  atomic valenz-charges read in
  non local Contribution for L=           2  read in
    real space projection operators read in
  non local Contribution for L=           2  read in
    real space projection operators read in
  non local Contribution for L=           0  read in
    real space projection operators read in
  non local Contribution for L=           0  read in
    real space projection operators read in
  non local Contribution for L=           1  read in
    real space projection operators read in
  non local Contribution for L=           1  read in
    real space projection operators read in
    PAW grid and wavefunctions read in
 
   number of l-projection  operators is LMAX  =           6
   number of lm-projection operators is LMMAX =          18
 
 POTCAR:   PAW_PBE O 08Apr2002                    
   VRHFIN =O: s2p4                                                              
   LEXCH  = PE                                                                  
   EATOM  =   432.3788 eV,   31.7789 Ry                                         
                                                                                
   TITEL  = PAW_PBE O 08Apr2002                                                 
   LULTRA =        F    use ultrasoft PP ?                                      
   IUNSCR =        0    unscreen: 0-lin 1-nonlin 2-no                           
   RPACOR =     .000    partial core radius                                     
   POMASS =   16.000; ZVAL   =    6.000    mass and valenz                      
   RCORE  =    1.520    outmost cutoff radius                                   
   RWIGS  =    1.550; RWIGS  =     .820    wigner-seitz radius (au A)           
   ENMAX  =  400.000; ENMIN  =  300.000 eV                                      
   ICORE  =        2    local potential                                         
   LCOR   =        T    correct aug charges                                     
   LPAW   =        T    paw PP                                                  
   EAUG   =  605.392                                                            
   DEXC   =     .000                                                            
   RMAX   =    2.264    core radius for proj-oper                               
   RAUG   =    1.300    factor for augmentation sphere                          
   RDEP   =    1.550    radius for radial grids                                 
   QCUT   =   -5.520; QGAM   =   11.041    optimization parameters              
                                                                                
   Description                                                                  
     l     E      TYP  RCUT    TYP  RCUT                                        
     0   .000     23  1.200                                                     
     0  -.700     23  1.200                                                     
     1   .000     23  1.520                                                     
     1   .600     23  1.520                                                     
     2   .000      7  1.500                                                     
  local pseudopotential read in
  atomic valenz-charges read in
  non local Contribution for L=           0  read in
    real space projection operators read in
  non local Contribution for L=           0  read in
    real space projection operators read in
  non local Contribution for L=           1  read in
    real space projection operators read in
  non local Contribution for L=           1  read in
    real space projection operators read in
    PAW grid and wavefunctions read in
 
   number of l-projection  operators is LMAX  =           4
   number of lm-projection operators is LMMAX =           8
 
 Optimization of the real space projectors (new method)

 maximal supplied QI-value         = 16.25
 optimisation between [QCUT,QGAM] = [ 10.24, 20.48] = [ 29.35,117.42] Ry 
 Optimized for a Real-space Cutoff    1.38 Angstroem

   l    n(q)    QCUT    max X(q) W(low)/X(q) W(high)/X(q)  e(spline) 
   2      7    10.239     6.328    0.33E-04    0.68E-04    0.30E-07
   2      7    10.239     9.625    0.20E-03    0.23E-03    0.80E-07
   0      8    10.239     9.711    0.17E-04    0.17E-04    0.13E-07
   0      8    10.239    32.764    0.56E-04    0.14E-03    0.62E-07
   1      8    10.239     7.413    0.78E-04    0.28E-04    0.38E-07
   1      8    10.239    31.472    0.43E-03    0.30E-03    0.73E-07
 Optimization of the real space projectors (new method)

 maximal supplied QI-value         = 14.36
 optimisation between [QCUT,QGAM] = [ 10.20, 20.39] = [ 29.12,116.47] Ry 
 Optimized for a Real-space Cutoff    1.70 Angstroem

   l    n(q)    QCUT    max X(q) W(low)/X(q) W(high)/X(q)  e(spline) 
   2      9    10.197     3.989    0.32E-04    0.18E-04    0.62E-07
   2      9    10.197    41.237    0.35E-03    0.14E-03    0.40E-06
   0     10    10.197    14.164    0.17E-04    0.12E-05    0.12E-07
   0     10    10.197    44.257    0.49E-04    0.25E-04    0.27E-06
   1     10    10.197     7.849    0.10E-04    0.77E-05    0.25E-07
   1     10    10.197    11.007    0.35E-04    0.49E-04    0.91E-07
 Optimization of the real space projectors (new method)

 maximal supplied QI-value         = 24.76
 optimisation between [QCUT,QGAM] = [ 10.15, 20.30] = [ 28.85,115.39] Ry 
 Optimized for a Real-space Cutoff    1.30 Angstroem

   l    n(q)    QCUT    max X(q) W(low)/X(q) W(high)/X(q)  e(spline) 
   0      8    10.150     4.192    0.55E-04    0.58E-04    0.78E-07
   0      8    10.150     8.473    0.46E-03    0.68E-03    0.23E-06
   1      7    10.150     2.474    0.11E-03    0.93E-04    0.33E-07
   1      7    10.150     3.912    0.46E-03    0.50E-03    0.15E-06
 PAW_PBE Ga_d 06Sep2000                 :
 energy of atom  1       EATOM=-2149.0616
 kinetic energy error for atom=    0.0101 (will be added to EATOM!!)
 PAW_PBE Ir 06Sep2000                   :
 energy of atom  2       EATOM= -560.2052
 kinetic energy error for atom=    0.0041 (will be added to EATOM!!)
 PAW_PBE O 08Apr2002                    :
 energy of atom  3       EATOM= -432.3788
 kinetic energy error for atom=    0.1156 (will be added to EATOM!!)
 
 
 POSCAR: Ga Ir  O                                
  positions in direct lattice
  velocities in cartesian coordinates
 exchange correlation table for  LEXCH =        8
   RHO(1)=    0.500       N(1)  =     2000
   RHO(2)=  100.500       N(2)  =     4000
 


--------------------------------------------------------------------------------------------------------


 ion  position               nearest neighbor table
   1  0.090  1.000  0.396- 140 1.82  99 1.82 108 1.83 106 1.87
   2  0.411  0.626  0.605- 157 1.83  72 1.83  85 1.83 121 1.85
   3  0.589  0.625  0.896-  86 1.83 158 1.83  71 1.83 136 1.86
   4  0.160  0.625  0.655-  78 1.93 149 1.93  80 1.95 121 2.01  75 2.08 154 2.08
   5  0.840  0.625  0.844-  77 1.93 150 1.94  79 1.94 136 2.01 153 2.08  76 2.08
   6  0.910  0.500  0.604-  90 1.83  78 1.83 118 1.83  76 1.86
   7  0.089  0.501  0.894-  77 1.82 117 1.83  68 1.84  75 1.85
   8  0.841  0.375  0.844-  79 1.93 117 1.94 119 1.94  65 2.02  76 2.06 116 2.08
   9  0.911  0.250  0.604- 131 1.83  97 1.83 118 1.83 116 1.86
  10  0.089  0.250  0.897- 117 1.83  96 1.83 132 1.86  93 1.86
  11  0.840  0.625  0.345- 138 1.93  89 1.93  90 1.94  81 2.01 141 2.08  88 2.08
  12  0.660  0.999  0.657- 155 1.93 114 1.94 102 1.95  95 2.00 160 2.05 133 2.07
  13  0.159  0.627  0.154-  70 1.92 137 1.92  68 1.94  82 2.02 142 2.07  87 2.11
  14  0.084  0.250  0.403- 120 1.81 129 1.81 108 1.81 127 1.93
  15  0.910  0.250  0.103- 119 1.82 130 1.84 109 1.84 128 1.86
  16  0.841  0.376  0.344-  90 1.93 129 1.93 131 1.94  92 2.01  88 2.06 128 2.08
  17  0.155  0.380  0.150-  68 1.89 130 1.89 132 1.93  87 2.05 122 2.10 127 2.22
  18  0.594  0.380  0.397- 135 1.80  83 1.82  92 1.83 123 1.91
  19  0.413  0.376  0.101-  91 1.81  69 1.81 124 1.82 122 1.92
  20  0.661  0.250  0.155- 126 1.93 105 1.93 124 1.95 128 2.00 100 2.08  92 2.08
  21  0.411  0.626  0.103-  73 1.82 145 1.83  69 1.83  82 1.87
  22  0.341  0.507  0.341-  85 1.90  83 1.92  82 2.00  87 2.00 125 2.02 122 2.10  64 3.11
  23  0.590  0.626  0.396-  74 1.82 146 1.83  83 1.85  81 1.86
  24  0.341  0.999  0.844- 156 1.92 115 1.93 113 1.95  94 2.01 159 2.06 134 2.07
  25  0.413  0.125  0.610- 114 1.81  84 1.82 134 1.83 104 1.89
  26  0.590  0.125  0.896- 105 1.83 115 1.83  67 1.84 133 1.86
  27  0.909  0.999  0.104-  98 1.82 139 1.83 109 1.84 107 1.85
  28  0.841  0.125  0.344- 110 1.93 108 1.93 131 1.94 100 2.01 107 2.06 128 2.08
  29  0.155  0.120  0.150- 111 1.89 109 1.89 132 1.93 106 2.05 101 2.10 127 2.22
  30  0.594  0.121  0.397- 102 1.80 103 1.82 100 1.83 123 1.91
  31  0.413  0.125  0.101- 113 1.81 112 1.81 124 1.82 101 1.92
  32  0.341  0.993  0.341- 144 1.90 103 1.92 147 2.00 106 2.00 104 2.02 101 2.10  64 3.11
  33  0.660  0.999  0.156- 143 1.92 105 1.93 112 1.94 107 2.00 148 2.06 100 2.09
  34  0.090  0.501  0.396-  89 1.82  80 1.82 129 1.83  87 1.87
  35  0.660  0.501  0.156-  86 1.92 126 1.93  69 1.94  88 2.00  81 2.06  92 2.09
  36  0.661  0.250  0.657- 135 1.94 102 1.94  84 1.95 116 1.99  65 2.06 133 2.06
  37  0.909  0.501  0.104-  79 1.82  70 1.83 130 1.84  88 1.85
  38  0.413  0.375  0.610-  72 1.81  84 1.82  66 1.83 125 1.89
  39  0.590  0.375  0.896- 126 1.83  71 1.83  67 1.84  65 1.86
  40  0.159  0.376  0.658- 118 1.92  80 1.94 120 1.95  66 2.01  75 2.04  93 2.08
  41  0.660  0.501  0.657-  74 1.93  72 1.94 135 1.95  76 2.00 136 2.05  65 2.07
  42  0.341  0.501  0.844-  73 1.92  71 1.93  91 1.95  75 2.01 121 2.06  66 2.07
  43  0.089  0.999  0.894- 152 1.82  96 1.83 111 1.84  94 1.85
  44  0.910  1.000  0.604- 110 1.83 151 1.83  97 1.83  95 1.86
  45  0.841  0.125  0.844-  98 1.93  96 1.94 119 1.94 133 2.02  95 2.06 116 2.08
  46  0.159  0.124  0.658-  97 1.92  99 1.94 120 1.95 134 2.01  94 2.04  93 2.08
  47  0.340  0.250  0.845-  67 1.93 113 1.94  91 1.94  93 2.00  66 2.07 134 2.07
  48  0.088  0.750  0.396- 149 1.83 140 1.83  89 1.83 142 1.87
  49  0.911  0.750  0.104- 150 1.83 139 1.84  70 1.84 141 1.86
  50  0.840  0.875  0.345- 138 1.93 140 1.93 110 1.94 148 2.01 141 2.08 107 2.08
  51  0.159  0.874  0.154- 139 1.92 137 1.92 111 1.94 147 2.02 142 2.07 106 2.11
  52  0.590  0.874  0.396- 155 1.82 146 1.83 103 1.85 148 1.86
  53  0.411  0.875  0.103- 156 1.82 145 1.83 112 1.83 147 1.87
  54  0.340  0.750  0.345- 146 1.93  85 1.94 144 1.94 142 2.00 147 2.09  82 2.09
  55  0.660  0.750  0.155- 145 1.94 143 1.94  86 1.94 141 2.00 148 2.09  81 2.09
  56  0.088  0.750  0.895- 152 1.83  77 1.83 137 1.83 154 1.86
  57  0.912  0.750  0.604- 138 1.83 151 1.84  78 1.84 153 1.86
  58  0.840  0.875  0.844- 152 1.93 150 1.94  98 1.94 160 2.01 153 2.08  95 2.08
  59  0.160  0.875  0.655- 151 1.93 149 1.93  99 1.95 159 2.01  94 2.08 154 2.08
  60  0.589  0.875  0.896- 143 1.83 158 1.83 115 1.83 160 1.86
  61  0.411  0.875  0.605- 157 1.83 114 1.83 144 1.83 159 1.85
  62  0.340  0.750  0.844- 158 1.93  73 1.94 156 1.94 154 2.00 159 2.08 121 2.08
  63  0.660  0.750  0.655- 157 1.94 155 1.94  74 1.94 153 2.00 136 2.09 160 2.09
  64  0.340  0.250  0.340- 123 1.92 127 1.93 104 1.95 125 1.95 122 2.02 101 2.02  22 3.11  32 3.11

  65  0.672  0.375  0.780-  39 1.86   8 2.02  36 2.06  41 2.07
  66  0.328  0.375  0.720-  38 1.83  40 2.01  47 2.07  42 2.07
  67  0.502  0.250  0.872-  39 1.84  26 1.84  47 1.93
  68  0.166  0.501  0.052-   7 1.84  17 1.89  13 1.94
  69  0.497  0.500  0.129-  19 1.81  21 1.83  35 1.94
  70  0.997  0.624  0.128-  37 1.83  49 1.84  13 1.92
  71  0.503  0.500  0.872-  39 1.83   3 1.83  42 1.93
  72  0.497  0.500  0.626-  38 1.81   2 1.83  41 1.94
  73  0.336  0.625  0.947-  21 1.82  42 1.92  62 1.94
  74  0.664  0.624  0.553-  23 1.82  41 1.93  63 1.94
  75  0.173  0.500  0.780-   7 1.85  42 2.01  40 2.04   4 2.08
  76  0.828  0.499  0.720-   6 1.86  41 2.00   8 2.06   5 2.08
  77  0.003  0.625  0.872-   7 1.82  56 1.83   5 1.93
  78  0.997  0.624  0.627-   6 1.83  57 1.84   4 1.93
  79  0.836  0.500  0.947-  37 1.82   8 1.93   5 1.94
  80  0.166  0.499  0.552-  34 1.82  40 1.94   4 1.95
  81  0.672  0.624  0.281-  23 1.86  11 2.01  35 2.06  55 2.09
  82  0.327  0.625  0.219-  21 1.87  22 2.00  13 2.02  54 2.09
  83  0.502  0.500  0.372-  18 1.82  23 1.85  22 1.92
  84  0.497  0.250  0.625-  38 1.82  25 1.82  36 1.95
  85  0.335  0.625  0.448-   2 1.83  22 1.90  54 1.94
  86  0.664  0.624  0.053-   3 1.83  35 1.92  55 1.94
  87  0.174  0.498  0.280-  34 1.87  22 2.00  17 2.05  13 2.11
  88  0.827  0.499  0.220-  37 1.85  35 2.00  16 2.06  11 2.08
  89  0.003  0.624  0.372-  34 1.82  48 1.83  11 1.93
  90  0.835  0.500  0.447-   6 1.83  16 1.93  11 1.94
  91  0.335  0.376  0.947-  19 1.81  47 1.94  42 1.95
  92  0.672  0.375  0.281-  18 1.83  16 2.01  20 2.08  35 2.09
  93  0.173  0.250  0.782-  10 1.86  47 2.00  40 2.08  46 2.08
  94  0.173  0.000  0.780-  43 1.85  24 2.01  46 2.04  59 2.08
  95  0.828  0.001  0.720-  44 1.86  12 2.00  45 2.06  58 2.08
  96  0.004  0.125  0.874-  43 1.83  10 1.83  45 1.94
  97  0.997  0.125  0.627-  44 1.83   9 1.83  46 1.92
  98  0.836  0.000  0.947-  27 1.82  45 1.93  58 1.94
  99  0.166  0.001  0.552-   1 1.82  46 1.94  59 1.95
 100  0.672  0.126  0.281-  30 1.83  28 2.01  20 2.08  33 2.09
 101  0.329  0.125  0.222-  31 1.92  64 2.02  29 2.10  32 2.10
 102  0.663  0.125  0.553-  30 1.80  36 1.94  12 1.95
 103  0.502  0.000  0.372-  30 1.82  52 1.85  32 1.92
 104  0.340  0.126  0.446-  25 1.89  64 1.95  32 2.02
 105  0.663  0.125  0.053-  26 1.83  20 1.93  33 1.93
 106  0.174  0.002  0.280-   1 1.87  32 2.00  29 2.05  51 2.11
 107  0.827  0.001  0.220-  27 1.85  33 2.00  28 2.06  50 2.08
 108  0.003  0.124  0.371-  14 1.81   1 1.83  28 1.93
 109  0.997  0.125  0.129-  15 1.84  27 1.84  29 1.89
 110  0.835  0.001  0.447-  44 1.83  28 1.93  50 1.94
 111  0.166  0.999  0.052-  43 1.84  29 1.89  51 1.94
 112  0.497  1.000  0.129-  31 1.81  53 1.83  33 1.94
 113  0.335  0.125  0.947-  31 1.81  47 1.94  24 1.95
 114  0.497  0.000  0.626-  25 1.81  61 1.83  12 1.94
 115  0.503  0.000  0.872-  26 1.83  60 1.83  24 1.93
 116  0.828  0.250  0.720-   9 1.86  36 1.99  45 2.08   8 2.08
 117  0.004  0.376  0.874-   7 1.83  10 1.83   8 1.94
 118  0.997  0.376  0.627-   6 1.83   9 1.83  40 1.92
 119  0.836  0.250  0.947-  15 1.82   8 1.94  45 1.94
 120  0.166  0.250  0.555-  14 1.81  46 1.95  40 1.95
 121  0.328  0.624  0.719-   2 1.85   4 2.01  42 2.06  62 2.08
 122  0.329  0.375  0.222-  19 1.92  64 2.02  17 2.10  22 2.10
 123  0.502  0.250  0.372-  18 1.91  30 1.91  64 1.92
 124  0.497  0.250  0.131-  19 1.82  31 1.82  20 1.95
 125  0.340  0.374  0.446-  38 1.89  64 1.95  22 2.02
 126  0.663  0.376  0.053-  39 1.83  20 1.93  35 1.93
 127  0.178  0.250  0.289-  64 1.93  14 1.93  17 2.22  29 2.22
 128  0.828  0.250  0.219-  15 1.86  20 2.00  16 2.08  28 2.08
 129  0.003  0.376  0.371-  14 1.81  34 1.83  16 1.93
 130  0.997  0.376  0.129-  15 1.84  37 1.84  17 1.89
 131  0.838  0.250  0.447-   9 1.83  16 1.94  28 1.94
 132  0.164  0.250  0.057-  10 1.86  29 1.93  17 1.93
 133  0.672  0.125  0.780-  26 1.86  45 2.02  36 2.06  12 2.07
 134  0.328  0.125  0.720-  25 1.83  46 2.01  47 2.07  24 2.07
 135  0.663  0.375  0.553-  18 1.80  36 1.94  41 1.95
 136  0.672  0.624  0.780-   3 1.86   5 2.01  41 2.05  63 2.09
 137  0.164  0.750  0.052-  56 1.83  51 1.92  13 1.92
 138  0.836  0.750  0.447-  57 1.83  50 1.93  11 1.93
 139  0.997  0.876  0.128-  27 1.83  49 1.84  51 1.92
 140  0.003  0.876  0.372-   1 1.82  48 1.83  50 1.93
 141  0.827  0.750  0.219-  49 1.86  55 2.00  11 2.08  50 2.08
 142  0.173  0.750  0.281-  48 1.87  54 2.00  51 2.07  13 2.07
 143  0.664  0.876  0.053-  60 1.83  33 1.92  55 1.94
 144  0.335  0.875  0.448-  61 1.83  32 1.90  54 1.94
 145  0.497  0.750  0.128-  53 1.83  21 1.83  55 1.94
 146  0.502  0.750  0.372-  52 1.83  23 1.83  54 1.93
 147  0.327  0.876  0.219-  53 1.87  32 2.00  51 2.02  54 2.09
 148  0.672  0.876  0.281-  52 1.86  50 2.01  33 2.06  55 2.09
 149  0.164  0.750  0.552-  48 1.83  59 1.93   4 1.93
 150  0.836  0.750  0.947-  49 1.83  58 1.94   5 1.94
 151  0.997  0.876  0.627-  44 1.83  57 1.84  59 1.93
 152  0.003  0.876  0.872-  43 1.82  56 1.83  58 1.93
 153  0.827  0.750  0.719-  57 1.86  63 2.00   5 2.08  58 2.08
 154  0.173  0.750  0.780-  56 1.86  62 2.00  59 2.08   4 2.08
 155  0.664  0.876  0.553-  52 1.82  12 1.93  63 1.94
 156  0.336  0.876  0.947-  53 1.82  24 1.92  62 1.94
 157  0.498  0.750  0.627-  61 1.83   2 1.83  63 1.94
 158  0.503  0.750  0.872-  60 1.83   3 1.83  62 1.93
 159  0.328  0.876  0.719-  61 1.85  59 2.01  24 2.06  62 2.08
 160  0.672  0.876  0.780-  60 1.86  58 2.01  12 2.05  63 2.09
 
  LATTYP: Found a simple monoclinic cell.
 ALAT       =    14.6889751464
 B/A-ratio  =     0.8259161174
 C/A-ratio  =     1.5972413798
 COS(beta)  =    -0.9171837574
  
  Lattice vectors:
  
 A1 = ( -11.8609006218,   0.0000000000,  -8.6651617002)
 A2 = (   0.0000000000, -12.1318613217,   0.0000000000)
 A3 = (  11.8609006218,   0.0000000000,  20.2429474736)


Analysis of symmetry for initial positions (statically):
=====================================================================
 Subroutine PRICEL returns:
 Original cell was already a primitive cell.
 

 Routine SETGRP: Setting up the symmetry group for a 
 simple monoclinic supercell.


 Subroutine GETGRP returns: Found  1 space group operations
 (whereof  1 operations were pure point group operations)
 out of a pool of  4 trial point group operations.


The static configuration has the point symmetry C_1 .


Analysis of symmetry for dynamics (positions and initial velocities):
=====================================================================
 Subroutine PRICEL returns:
 Original cell was already a primitive cell.
 

 Routine SETGRP: Setting up the symmetry group for a 
 simple monoclinic supercell.


 Subroutine GETGRP returns: Found  1 space group operations
 (whereof  1 operations were pure point group operations)
 out of a pool of  4 trial point group operations.


The dynamic configuration has the point symmetry C_1 .


Analysis of structural, dynamic, and magnetic symmetry:
=====================================================================
 Subroutine PRICEL returns:
 Original cell was already a primitive cell.
 

 Routine SETGRP: Setting up the symmetry group for a 
 simple monoclinic supercell.


 Subroutine GETGRP returns: Found  1 space group operations
 (whereof  1 operations were pure point group operations)
 out of a pool of  4 trial point group operations.


The magnetic configuration has the point symmetry C_1 .


 Subroutine INISYM returns: Found  1 space group operations
 (whereof  1 operations are pure point group operations),
 and found     1 'primitive' translations

 
 
 KPOINTS: KPOINTS created by Atomic Simulation Env
  k-points in reciprocal lattice
Space group operators:
 irot       det(A)        alpha          n_x          n_y          n_z        tau_x        tau_y        tau_z
    1     1.000000     0.000000     1.000000     0.000000     0.000000     0.000000     0.000000     0.000000

 ----------------------------------------------------------------------------- 
|                                                                             |
|           W    W    AA    RRRRR   N    N  II  N    N   GGGG   !!!           |
|           W    W   A  A   R    R  NN   N  II  NN   N  G    G  !!!           |
|           W    W  A    A  R    R  N N  N  II  N N  N  G       !!!           |
|           W WW W  AAAAAA  RRRRR   N  N N  II  N  N N  G  GGG   !            |
|           WW  WW  A    A  R   R   N   NN  II  N   NN  G    G                |
|           W    W  A    A  R    R  N    N  II  N    N   GGGG   !!!           |
|                                                                             |
|      Your generating k-point grid is not commensurate to the symmetry       |
|      of the lattice.  This can cause   slow convergence with respect        |
|      to k-points for HF type calculations                                   |
|      suggested SOLUTIONS:                                                   |
|       ) if not already the case, use automatic k-point generation           |
|       ) shift your grid to Gamma (G) (e.g. required for hex or fcc lattice) |
|                                                                             |
 ----------------------------------------------------------------------------- 

 
 Subroutine IBZKPT_HF returns following result:
 ==============================================
 
 Found      2 k-points in 1st BZ
 the following      2 k-points will be used (e.g. in the exchange kernel)
 Following reciprocal coordinates:   # in IRBZ
  0.250000  0.250000  0.250000    0.50000000   1 t-inv F
 -0.250000 -0.250000 -0.250000    0.50000000   1 t-inv T


--------------------------------------------------------------------------------------------------------




 Dimension of arrays:
   k-points           NKPTS =      1   k-points in BZ     NKDIM =      2   number of bands    NBANDS=    864
   number of dos      NEDOS =    301   number of ions     NIONS =    160
   non local maximal  LDIM  =      6   non local SUM 2l+1 LMDIM =     18
   total plane-waves  NPLWV = 216000
   max r-space proj   IRMAX =   2708   max aug-charges    IRDMAX=   9574
   dimension x,y,z NGX =    60 NGY =   60 NGZ =   60
   dimension x,y,z NGXF=   120 NGYF=  120 NGZF=  120
   support grid    NGXF=   120 NGYF=  120 NGZF=  120
   ions per type =              63   1  96
   NGX,Y,Z   is equivalent  to a cutoff of   8.17,  8.22,  8.62 a.u.
   NGXF,Y,Z  is equivalent  to a cutoff of  16.33, 16.44, 17.23 a.u.

 SYSTEM =  unknown system                          
 POSCAR =  Ga Ir  O                                

 Startparameter for this run:
   NWRITE =      2    write-flag & timer
   PREC   = normal    normal or accurate (medium, high low for compatibility)
   ISTART =      1    job   : 0-new  1-cont  2-samecut
   ICHARG =      0    charge: 1-file 2-atom 10-const
   ISPIN  =      2    spin polarized calculation?
   LNONCOLLINEAR =      F non collinear calculations
   LSORBIT =      F    spin-orbit coupling
   INIWAV =      1    electr: 0-lowe 1-rand  2-diag
   LASPH  =      F    aspherical Exc in radial PAW
   METAGGA=      F    non-selfconsistent MetaGGA calc.

 Electronic Relaxation 1
   ENCUT  =  400.0 eV  29.40 Ry    5.42 a.u.  19.92 19.78 18.88*2*pi/ulx,y,z
   ENINI  =  400.0     initial cutoff
   ENAUG  =  605.4 eV  augmentation charge cutoff
   NELM   =     40;   NELMIN=  2; NELMDL=  0     # of ELM steps 
   EDIFF  = 0.1E-03   stopping-criterion for ELM
   LREAL  =      T    real-space projection
   NLSPLINE    = F    spline interpolate recip. space projectors
   LCOMPAT=      F    compatible to vasp.4.4
   GGA_COMPAT  = T    GGA compatible to vasp.4.4-vasp.4.6
   LMAXPAW     = -100 max onsite density
   LMAXMIX     =    2 max onsite mixed and CHGCAR
   VOSKOWN=      0    Vosko Wilk Nusair interpolation
   ROPT   =   -0.00050  -0.00050  -0.00050
 Ionic relaxation
   EDIFFG = 0.1E-02   stopping-criterion for IOM
   NSW    =     45    number of steps for IOM
   NBLOCK =      1;   KBLOCK =     45    inner block; outer block 
   IBRION =      2    ionic relax: 0-MD 1-quasi-New 2-CG
   NFREE  =      1    steps in history (QN), initial steepest desc. (CG)
   ISIF   =      0    stress and relaxation
   IWAVPR =     11    prediction:  0-non 1-charg 2-wave 3-comb
   ISYM   =      3    0-nonsym 1-usesym 2-fastsym
   LCORR  =      T    Harris-Foulkes like correction to forces

   POTIM  = 0.3500    time-step for ionic-motion
   TEIN   =    0.0    initial temperature
   TEBEG  =    0.0;   TEEND  =   0.0 temperature during run
   SMASS  =  -3.00    Nose mass-parameter (am)
   estimated Nose-frequenzy (Omega)   =  0.10E-29 period in steps =****** mass=  -0.341E-26a.u.
   SCALEE = 1.0000    scale energy and forces
   NPACO  =    256;   APACO  = 16.0  distance and # of slots for P.C.
   PSTRESS=    0.0 pullay stress

  Mass of Ions in am
   POMASS =  69.72192.22 16.00
  Ionic Valenz
   ZVAL   =  13.00  9.00  6.00
  Atomic Wigner-Seitz radii
   RWIGS  =  -1.00 -1.00 -1.00
  virtual crystal weights 
   VCA    =   1.00  1.00  1.00
   NELECT =    1402.0000    total number of electrons
   NUPDOWN=       2.0000    fix difference up-down

 DOS related values:
   EMIN   =  10.00;   EMAX   =-10.00  energy-range for DOS
   EFERMI =   0.00
   ISMEAR =     0;   SIGMA  =   0.05  broadening in eV -4-tet -1-fermi 0-gaus

 Electronic relaxation 2 (details)
   IALGO  =     58    algorithm
   LDIAG  =      T    sub-space diagonalisation (order eigenvalues)
   LSUBROT=      F    optimize rotation matrix (better conditioning)
   TURBO    =      0    0=normal 1=particle mesh
   IRESTART =      0    0=no restart 2=restart with 2 vectors
   NREBOOT  =      0    no. of reboots
   NMIN     =      0    reboot dimension
   EREF     =   0.00    reference energy to select bands
   IMIX   =      4    mixing-type and parameters
     AMIX     =   0.40;   BMIX     =  1.00
     AMIX_MAG =   1.60;   BMIX_MAG =  1.00
     AMIN     =   0.10
     WC   =   100.;   INIMIX=   1;  MIXPRE=   1;  MAXMIX= -45

 Intra band minimization:
   WEIMIN = 0.0010     energy-eigenvalue tresh-hold
   EBREAK =  0.29E-07  absolut break condition
   DEPER  =   0.30     relativ break condition  

   TIME   =   0.40     timestep for ELM

  volume/ion in A,a.u.               =      10.41        70.27
  Fermi-wavevector in a.u.,A,eV,Ry     =   1.545613  2.920784 32.503204  2.388918
  Thomas-Fermi vector in A             =   2.650966
 
 Write flags
   LWAVE        =      T    write WAVECAR
   LDOWNSAMPLE  =      F    k-point downsampling of WAVECAR
   LCHARG       =      F    write CHGCAR
   LVTOT        =      F    write LOCPOT, total local potential
   LVHAR        =      T    write LOCPOT, Hartree potential only
   LELF         =      F    write electronic localiz. function (ELF)
   LORBIT       =     10    0 simple, 1 ext, 2 COOP (PROOUT), +10 PAW based schemes


 Dipole corrections
   LMONO  =      F    monopole corrections only (constant potential shift)
   LDIPOL =      F    correct potential (dipole corrections)
   IDIPOL =      0    1-x, 2-y, 3-z, 4-all directions 
   EPSILON=  1.0000000 bulk dielectric constant

 Exchange correlation treatment:
   GGA     =    --    GGA type
   LEXCH   =     8    internal setting for exchange type
   VOSKOWN=      0    Vosko Wilk Nusair interpolation
   EXXOEP  =     0    0=HF, 1=EXX-LHF (local Hartree Fock) 2=EXX OEP
   LHFCALC =     T    Hartree Fock is set to
   LSYMGRAD=     F    symmetrize gradient (conserves proper symmetry)
   PRECFOCK=fast      Normal, Fast or Accurate (Low or Medium for compatibility)
   LRHFCALC=     F    long range Hartree Fock
   LRSCOR  =     F    long range correlation only (use DFT for short range part)
   LTHOMAS =     F    Thomas Fermi screening in HF
   LMODELHF=     F    short range full HF, long range fraction AEXX
   ENCUT4O =  -1.0   cutoff for four orbital integrals eV
   LMAXFOCK=     4    L truncation for augmentation on plane wave grid
   LMAXFOCKAE=  -1    L truncation for all-electron charge restoration on plane wave grid
   NMAXFOCKAE=   1    number of basis functions for all-electron charge restoration
   LFOCKAEDFT=     F  apply the AE augmentation even for DFT
   NKREDX  =     1    reduce k-point grid by
   NKREDY  =     1    reduce k-point grid by
   NKREDZ  =     1    reduce k-point grid by
   SHIFTRED=     F    shift reduced grid of Gamma
   HFKIDENT=     F    idential grid for each k-point
   ODDONLY =     F    use only odd q-grid points
   EVENONLY=     F    use only even q-grid points
   HFALPHA =   -1.0000 decay constant for conv. correction
   MCALPHA =    0.0000 extent of test-charge in conv. correction in multipole expansion
   AEXX    =    0.3200 exact exchange contribution
   HFSCREEN=    0.2000 screening length (either q_TF or 0.3 A-1)
   HFSCREENC=   0.2000 screening length for correlation (either q_TF or 0.3 A-1)
   HFRCUT  =    0.0000 spherical cutoff for potential kernel
   ALDAX   =    0.6800 LDA exchange part
   AGGAX   =    0.6800 GGA exchange part
   ALDAC   =    1.0000 LDA correlation
   AGGAC   =    1.0000 GGA correlation
   ENCUTFOCK=  -1.0 apply spherical cutoff to Coloumb kernel
   NBANDSGWLOW=     1    first orbital included in HF term
   NBLOCK_FOCK=    64    blocking factor in FOCK_ACC
 Linear response parameters
   LEPSILON=     F    determine dielectric tensor
   LRPA    =     F    only Hartree local field effects (RPA)
   LNABLA  =     F    use nabla operator in PAW spheres
   LVEL    =     F    velocity operator in full k-point grid
   LINTERFAST=   F  fast interpolation
   KINTER  =     0    interpolate to denser k-point grid
   CSHIFT  =0.1000    complex shift for real part using Kramers Kronig
   OMEGAMAX=  -1.0    maximum frequency
   DEG_THRESHOLD= 0.2000000E-02 threshold for treating states as degnerate
   RTIME   =   -0.100 relaxation time in fs
  (WPLASMAI=    0.000 imaginary part of plasma frequency in eV, 0.658/RTIME)
   DFIELD  = 0.0000000 0.0000000 0.0000000 field for delta impulse in time
 
 Orbital magnetization related:
   ORBITALMAG=     F  switch on orbital magnetization
   LCHIMAG   =     F  perturbation theory with respect to B field
   DQ        =  0.001000  dq finite difference perturbation B field
   LLRAUG    =     F  two centre corrections for induced B field



--------------------------------------------------------------------------------------------------------


 conjugate gradient relaxation of ions
 charge density and potential will be updated during run
 spin polarized calculation
 Conjugate gradient for all bands (Freysoldt, et al. PRB 79, 241103 (2009))
 preconditioned conjugated gradient                                        
 perform sub-space diagonalisation
    before iterative eigenvector-optimisation
 modified Broyden-mixing scheme, WC =      100.0
 initial mixing is a Kerker type mixing with AMIX =  0.4000 and BMIX =      1.0000
 Hartree-type preconditioning will be used
 using additional bands          163
 real space projection scheme for non local part
 use partial core corrections
 no Harris-corrections to forces 
 use gradient corrections 
 use of overlap-Matrix (Vanderbilt PP)
 Gauss-broadening in eV      SIGMA  =   0.05


--------------------------------------------------------------------------------------------------------


  energy-cutoff  :      400.00
  volume of cell :     1665.98
      direct lattice vectors                 reciprocal lattice vectors
    11.860900622  0.000000000 -2.912624073     0.084310630  0.000000000  0.000000000
     0.000000000 12.131861322  0.000000000     0.000000000  0.082427583  0.000000000
     0.000000000  0.000000000 11.577785773     0.021210029  0.000000000  0.086372301

  length of vectors
    12.213285494 12.131861322 11.577785773     0.084310630  0.082427583  0.088938404


 
 old parameters found on file WAVECAR:
  energy-cutoff  :      400.00
  volume of cell :     1665.98
      direct lattice vectors                 reciprocal lattice vectors
    11.860900622  0.000000000 -2.912624073     0.084310630  0.000000000  0.000000000
     0.000000000 12.131861322  0.000000000     0.000000000  0.082427583  0.000000000
     0.000000000  0.000000000 11.577785773     0.021210029  0.000000000  0.086372301

  length of vectors

 
 k-points in units of 2pi/SCALE and weight: KPOINTS created by Atomic Simulation Env
   0.02638016  0.02060690  0.02159308       1.000
 
 k-points in reciprocal lattice and weights: KPOINTS created by Atomic Simulation Env
   0.25000000  0.25000000  0.25000000       1.000
 
 position of ions in fractional coordinates (direct lattice) 
   0.08980585  0.99955670  0.39623900
   0.41095297  0.62558170  0.60487672
   0.58907810  0.62514807  0.89573685
   0.15961625  0.62518895  0.65501789
   0.84027958  0.62511511  0.84430918
   0.91008751  0.50017682  0.60351881
   0.08935334  0.50080815  0.89440129
   0.84090403  0.37549512  0.84422767
   0.91112403  0.25006761  0.60435262
   0.08908654  0.25008405  0.89705316
   0.84023235  0.62506755  0.34453880
   0.66013106  0.99932330  0.65701282
   0.15864766  0.62659123  0.15428997
   0.08403353  0.25009145  0.40275126
   0.91000814  0.25009938  0.10332578
   0.84055217  0.37558586  0.34376327
   0.15490358  0.37997057  0.15034118
   0.59387940  0.37966142  0.39717283
   0.41331355  0.37555551  0.10091874
   0.66078274  0.25011667  0.15488501
   0.41117229  0.62557426  0.10293547
   0.34080263  0.50680414  0.34149437
   0.58958477  0.62596611  0.39601941
   0.34055070  0.99907730  0.84394142
   0.41294874  0.12500123  0.60974251
   0.58952736  0.12495416  0.89603850
   0.90902310  0.99947882  0.10355543
   0.84054693  0.12462986  0.34380545
   0.15487884  0.12017380  0.15029988
   0.59382407  0.12059143  0.39715311
   0.41335048  0.12469531  0.10092805
   0.34080624  0.99341048  0.34146767
   0.65997006  0.99926173  0.15551070
   0.08979677  0.50061193  0.39624488
   0.65996436  0.50095849  0.15551815
   0.66101273  0.25011754  0.65742455
   0.90904464  0.50068450  0.10356139
   0.41286358  0.37527114  0.60974560
   0.58960672  0.37536170  0.89605459
   0.15902667  0.37606806  0.65755513
   0.66011969  0.50085763  0.65701597
   0.34055737  0.50115360  0.84396292
   0.08932756  0.99933044  0.89437777
   0.91007905  0.99996474  0.60353306
   0.84088067  0.12469685  0.84425122
   0.15903801  0.12410111  0.65753758
   0.33987859  0.25011825  0.84471092
   0.08819516  0.75009379  0.39604813
   0.91114594  0.75008257  0.10390843
   0.84024094  0.87514268  0.34451911
   0.15862799  0.87356264  0.15430054
   0.58964384  0.87427752  0.39602259
   0.41110941  0.87469449  0.10289543
   0.33989409  0.75011700  0.34527583
   0.66010314  0.75011703  0.15490349
   0.08837718  0.75006508  0.89480646
   0.91158840  0.75007134  0.60408031
   0.84028799  0.87506718  0.84429546
   0.15958292  0.87499845  0.65503984
   0.58915085  0.87517083  0.89575361
   0.41085434  0.87472448  0.60484907
   0.34008303  0.75012077  0.84441030
   0.66020437  0.75010823  0.65510030
   0.34026682  0.25011572  0.33983332
   0.67186266  0.37519925  0.78010023
   0.32757775  0.37519984  0.72035484
   0.50248908  0.25020407  0.87226755
   0.16576817  0.50115613  0.05173368
   0.49701892  0.50028860  0.12911869
   0.99741936  0.62421492  0.12796138
   0.50261144  0.49986031  0.87189938
   0.49654894  0.49998517  0.62602243
   0.33563256  0.62456491  0.94709162
   0.66372516  0.62409844  0.55252142
   0.17260510  0.49997293  0.77983548
   0.82774170  0.49945250  0.71951828
   0.00262478  0.62456728  0.87220918
   0.99749667  0.62420315  0.62734203
   0.83564837  0.49979645  0.94700460
   0.16598031  0.49915255  0.55226967
   0.67217534  0.62413956  0.28063060
   0.32731102  0.62467831  0.21855477
   0.50227569  0.50010153  0.37232879
   0.49693810  0.25017272  0.62491439
   0.33529981  0.62481199  0.44773714
   0.66381174  0.62439537  0.05257369
   0.17358474  0.49788093  0.28018465
   0.82729453  0.49949040  0.21952771
   0.00279976  0.62424222  0.37150560
   0.83512240  0.49961866  0.44685995
   0.33475785  0.37574556  0.94723370
   0.67209701  0.37465593  0.28062111
   0.17251261  0.25011354  0.78199993
   0.17258726  0.00021693  0.77982684
   0.82773370  0.00068850  0.71952201
   0.00380735  0.12451986  0.87394629
   0.99732028  0.12456723  0.62727674
   0.83564186  0.00037826  0.94700071
   0.16597086  0.00098849  0.55226306
   0.67209740  0.12561668  0.28063711
   0.32941653  0.12531867  0.22186013
   0.66331743  0.12508906  0.55302290
   0.50228527  0.00009947  0.37230850
   0.34017167  0.12604505  0.44624749
   0.66296257  0.12456973  0.05313413
   0.17357818  0.00234582  0.28015801
   0.82729505  0.00070548  0.21953846
   0.00303973  0.12413995  0.37125639
   0.99672129  0.12455785  0.12880115
   0.83511014  0.00056609  0.44686278
   0.16573793  0.99896283  0.05171786
   0.49702817  0.99992287  0.12909292
   0.33479220  0.12450271  0.94723921
   0.49656208  0.00023540  0.62602486
   0.50261109  0.00038880  0.87190749
   0.82790034  0.25006898  0.71950520
   0.00382184  0.37563213  0.87394332
   0.99731959  0.37556963  0.62727429
   0.83648488  0.25014154  0.94681117
   0.16647707  0.25008356  0.55477604
   0.32758481  0.62443707  0.71936327
   0.32939342  0.37491014  0.22187401
   0.50183743  0.25016131  0.37231263
   0.49716834  0.25014258  0.13124587
   0.34015309  0.37423542  0.44625384
   0.66298853  0.37565394  0.05314790
   0.17759402  0.25013360  0.28948534
   0.82762707  0.25011123  0.21905358
   0.00304136  0.37603459  0.37124814
   0.99674947  0.37562045  0.12880616
   0.83752135  0.25012986  0.44681470
   0.16367981  0.25007604  0.05697503
   0.67185187  0.12506535  0.78013327
   0.32760518  0.12497875  0.72034291
   0.66336965  0.37510342  0.55302367
   0.67214278  0.62425350  0.78032700
   0.16385279  0.75009343  0.05195181
   0.83646541  0.75013384  0.44709341
   0.99740405  0.87595714  0.12797488
   0.00279750  0.87594002  0.37150032
   0.82744368  0.75009291  0.21900173
   0.17264187  0.75012576  0.28075430
   0.66387881  0.87582145  0.05258572
   0.33524353  0.87545919  0.44770709
   0.49749146  0.75016964  0.12819997
   0.50186238  0.75014978  0.37202608
   0.32730093  0.87552355  0.21854329
   0.67219208  0.87610043  0.28061298
   0.16409988  0.75011813  0.55238667
   0.83627183  0.75011241  0.94719789
   0.99747876  0.87594500  0.62735587
   0.00261768  0.87555720  0.87219529
   0.82746141  0.75007586  0.71892539
   0.17255083  0.75010448  0.78049707
   0.66377655  0.87608026  0.55251999
   0.33557337  0.87569138  0.94706463
   0.49751820  0.75020137  0.62711347
   0.50257217  0.75020195  0.87214557
   0.32755704  0.87577603  0.71936102
   0.67217760  0.87599945  0.78032786
 
 position of ions in cartesian coordinates  (Angst):
   1.06517828 12.12648323  4.32599957
   4.87427235  7.58947048  5.80618159
   6.98699684  7.58420971  8.65488635
   1.89319243  7.58470562  7.11875468
   9.96647255  7.58380979  7.32781234
  10.79445746  6.06807579  4.33666873
   1.05981111  6.07573501 10.09493386
   9.97387914  4.55545473  7.32504982
  10.80675161  3.03378553  4.34330332
   1.05664659  3.03398500 10.12641374
   9.96591238  7.58323286  1.54171545
   7.82974886 12.12365173  5.68404007
   1.88170411  7.60171792  1.32425520
   0.99671335  3.03407477  4.41820978
  10.79351608  3.03417094 -1.45422785
   9.96970580  4.55655554  1.53180502
   1.83729595  4.60975023  1.28944209
   7.04394460  4.60599972  2.86863449
   4.90227095  4.55618740 -0.03541141
   7.83747844  3.03438074 -0.13138622
   4.87687364  7.58938012 -0.00582544
   4.04222612  6.14847759  2.96111875
   6.99300635  7.59413401  2.86778913
   4.03923797 12.12066723  8.77907687
   4.89794398  1.51649755  5.85670370
   6.99232538  1.51592659  8.65707028
  10.78183262 12.12553839 -1.44869993
   9.96964358  1.51199220  1.53230862
   1.83700255  1.45793182  1.28903601
   7.04328829  1.46299848  2.86856739
   4.90270897  1.51278618 -0.03541122
   4.04226891 12.05191821  2.96079904
   7.82783935 12.12290472 -0.12177518
   1.06507051  6.07335451  4.32609409
   7.82777172  6.07755893 -0.12167227
   7.84020634  3.03439130  5.68623898
  10.78208816  6.07423496 -1.44869376
   4.89693388  4.55273747  5.85698751
   6.99326670  4.55383613  8.65702531
   1.88619953  4.56240556  7.14984750
   7.82961408  6.07633525  5.68410959
   4.03931714  6.07992596  8.77930633
   1.05950529 12.12373833 10.09473662
  10.79435714 12.13143357  4.33685836
   9.97360211  1.51280488  7.32539045
   1.88633400  1.50557744  7.14961133
   4.03126617  3.03439991  8.78994351
   1.04607400  9.10003386  4.32848111
  10.80701150  9.09989769 -1.45079605
   9.96601424 10.61710963  1.54146243
   1.88147083 10.59794076  1.32443493
   6.99370701 10.60661358  2.86765386
   4.87612780 10.61167222 -0.00610593
   4.03145001  9.10031542  3.00754591
   7.82941769  9.10031576 -0.12919287
   1.04823292  9.09968556 10.10246806
  10.81225943  9.09976147  4.33879809
   9.96657229 10.61619362  7.32762895
   1.89279720 10.61535991  7.11910582
   6.98785971 10.61745111  8.65486850
   4.87310255 10.61203608  5.80614865
   4.03369103  9.10036111  8.78586749
   7.83061844  9.10020900  5.66168373
   4.03587099  3.03436927  2.94344804
   7.96889629  4.55186529  7.07494998
   3.88536710  4.55187238  7.38600321
   5.95997302  3.03544105  8.63536506
   1.96615982  6.07995671  0.11614115
   5.89509204  6.06943192  0.04727923
  11.83029195  7.57288880 -1.42359824
   5.96142433  6.06423591  8.63074610
   5.88951767  6.06575080  5.80169318
   3.98090443  7.57713489  9.98765240
   7.87237818  7.57147576  4.46379279
   2.04725190  6.06560228  8.52603442
   9.81776204  6.05928843  5.91952811
   0.03113221  7.57716363 10.09060606
  11.83120882  7.57274606  4.35789888
   9.91154229  6.06346118  8.53028684
   1.96867592  6.05564956  5.91062167
   7.97260493  7.57197455  1.29128684
   3.88220346  7.57851065  1.57704637
   5.95744201  6.06716239  2.84780267
   5.89413336  3.03506072  5.78773109
   3.97695772  7.58013245  4.20720239
   7.87340505  7.57507800 -1.32474714
   2.05887134  6.04022238  2.73833078
   9.81245820  6.05974821  0.13204682
   0.03320771  7.57322001  4.29305755
   9.90530377  6.06130426  2.74125114
   3.97052955  4.55849301  9.99184513
   7.97167579  4.54527383  1.29140515
   2.04615496  3.03434276  8.55136333
   2.04704033  0.00263174  8.52598629
   9.81766715  0.00835276  5.91959462
   0.04515859  1.51065762 10.10727357
  11.82911671  1.51123231  4.35765666
   9.91146509  0.00458895  8.53026075
   1.96856392  0.01199218  5.91057263
   7.97168053  1.52396413  1.29158931
   3.90717678  1.52034873  1.60918258
   7.86754216  1.51756307  4.47078636
   5.95755571  0.00120672  2.84753984
   4.03474234  1.52916105  4.17576565
   7.86333321  1.51126270 -1.31578519
   2.05879352  0.02845916  2.73804145
   9.81246437  0.00855881  0.13216980
   0.03605398  1.50604871  4.28947335
  11.82201220  1.51111854 -1.41184228
   9.90515842  0.00686773  2.74131962
   1.96580115 12.11927851  0.11604602
   5.89520171 12.13092564  0.04695399
   3.97093699  1.51044964  9.99180879
   5.88967347  0.00285585  5.80168306
   5.96142017  0.00471685  8.63084103
   9.81964360  3.03380216  5.91891459
   0.04533051  4.55711691 10.10719697
  11.82910853  4.55635871  4.35763028
   9.92146409  3.03468251  8.52561088
   1.97456802  3.03397905  5.93819304
   3.88545087  7.57558389  7.37450241
   3.90690264  4.54835781  1.60941052
   5.95224388  3.03492230  2.84889211
   5.89686429  3.03469509  0.07147214
   4.03452195  4.54017225  4.17589327
   7.86364104  4.55738148 -1.31570136
   2.10642496  3.03458610  2.83433460
   9.81640241  3.03431471  0.12558891
   0.03607329  4.56199954  4.28937307
  11.82234642  4.55697516 -1.41186638
   9.93375754  3.03454079  2.73374000
   1.94138997  3.03388779  0.18290690
   7.96876823  1.51727552  7.07536394
   3.88569252  1.51622491  7.38578512
   7.86816148  4.55070264  4.47064312
   7.97221874  7.57335689  7.07675955
   1.94344168  9.10002953  0.12424534
   9.92123309  9.10051973  2.74004238
  11.83011032 10.62699051 -1.42339729
   0.03318087 10.62678281  4.29300303
   9.81422731  9.10002316  0.12552277
   2.04768805  9.10042166  2.74767225
   7.87420055 10.62534438 -1.32480320
   3.97629018 10.62094952  4.20701839
   5.90069671  9.10095398  0.03526617
   5.95253986  9.10071309  2.84550177
   3.88208381 10.62173034  1.57694281
   7.97280340 10.62872893  1.29103411
   1.94637235  9.10032908  5.91745331
   9.91893712  9.10025977  8.53070879
  11.83099647 10.62684332  4.35811127
   0.03104802 10.62213854 10.09046588
   9.81443759  9.09981628  5.91348007
   2.04660829  9.10016355  8.53385212
   7.87298773 10.62848421  4.46362652
   3.98020240 10.62376639  9.98751237
   5.90101390  9.10133898  5.81150189
   5.96095860  9.10134603  8.63371080
   3.88512156 10.62479339  7.37455724
   7.97263167 10.62750381  7.07666809
 


--------------------------------------------------------------------------------------------------------


 k-point  1 :   0.2500 0.2500 0.2500  plane waves:   30269

 maximum and minimum number of plane-waves per node :      3813     3744

 maximum number of plane-waves:     30269
 maximum index in each direction: 
   IXMAX=   19   IYMAX=   19   IZMAX=   18
   IXMIN=  -20   IYMIN=  -20   IZMIN=  -19


 real space projection operators:
  total allocation   :      19663.58 KBytes
  max/ min on nodes  :       2590.11       2314.69


 parallel 3D FFT for wavefunctions:
    minimum data exchange during FFTs selected (reduces bandwidth)
 parallel 3D FFT for charge:
    minimum data exchange during FFTs selected (reduces bandwidth)


 FFT grid for exact exchange (Hartree Fock) 
  NGX = 42; NGY = 42; NGZ = 40

 
 Radii for the augmentation spheres in the non-local exchange
 for species   1 augmentation radius   1.277 (default was   1.031)
       energy cutoff for augmentation   1600.0
 for species   2 augmentation radius   1.454 (default was   1.279)
       energy cutoff for augmentation   1600.0
 for species   3 augmentation radius   0.820 (default was   0.722)
       energy cutoff for augmentation   1600.0

 real space projection operators:
  total allocation   :       5308.62 KBytes
  max/ min on nodes  :        708.35        588.93

 Maximum index for augmentation-charges in exchange           75
  SETUP_FOCK is finished

 total amount of memory used by VASP MPI-rank0    58617. kBytes
=======================================================================

   base      :      30000. kBytes
   nonlr-proj:      12819. kBytes
   fftplans  :       1991. kBytes
   grid      :       3603. kBytes
   one-center:        622. kBytes
   HF        :        129. kBytes
   wavefun   :       9453. kBytes
 
     INWAV:  cpu time    4.3681: real time    4.3682
 Broyden mixing: mesh for mixing (old mesh)
   NGX = 39   NGY = 39   NGZ = 37
  (NGX  =120   NGY  =120   NGZ  =120)
  gives a total of  56277 points

 charge density for first step will be calculated from the start-wavefunctions


--------------------------------------------------------------------------------------------------------


 Maximum index for non-local projection operator          356
 Maximum index for augmentation-charges          168 (set IRDMAX)


--------------------------------------------------------------------------------------------------------


 initial charge from wavefunction
 First call to EWALD:  gamma=   0.150
 Maximum number of real-space cells 3x 3x 3
 Maximum number of reciprocal cells 3x 3x 3

    FEWALD:  cpu time    0.0061: real time    0.0061


--------------------------------------- Iteration      1(   1)  ---------------------------------------


    POTLOK:  cpu time    0.0917: real time    0.0928
    SETDIJ:  cpu time    0.2156: real time    0.2156
    TRIAL :  cpu time  112.4800: real time  112.5958
    CORREC:  cpu time  111.0470: real time  111.0759
    CHARGE:  cpu time    0.1251: real time    0.1251
    --------------------------------------------
      LOOP:  cpu time  223.9750: real time  224.1449

 eigenvalue-minimisations  :     0
 total energy-change (2. order) :-0.1520615E+04  (-0.5878642E-05)
 number of electron    1402.0004010 magnetization       2.0000006
 augmentation part      608.6452710 magnetization       0.8642604

 Free energy of the ion-electron system (eV)
  ---------------------------------------------------
  alpha Z        PSCENC =      9536.06362079
  Ewald energy   TEWEN  =   -118133.24618839
  -Hartree energ DENC   =    -44597.38508264
  -exchange      EXHF   =      5256.07576292
  -V(xc)+E(xc)   XCENC  =      4706.06327364
  PAW double counting   =    126852.48859584  -148373.25590722
  entropy T*S    EENTRO =        -0.00000000
  eigenvalues    EBANDS =    -13502.12789057
  atomic energy  EATOM  =    176734.70858493
  ---------------------------------------------------
  free energy    TOTEN  =     -1520.61523071 eV

  energy without entropy =    -1520.61523071  energy(sigma->0) =    -1520.61523071
  exchange ACFDT corr.  =        -0.00000000  see jH, gK, PRB 81, 115126


--------------------------------------------------------------------------------------------------------




--------------------------------------- Iteration      1(   2)  ---------------------------------------


    POTLOK:  cpu time    0.0868: real time    0.0880
    SETDIJ:  cpu time    0.2156: real time    0.2156
    TRIAL :  cpu time  111.6191: real time  111.6783
    CORREC:  cpu time  111.0201: real time  111.0472
    EDDIAG:  cpu time  109.8578: real time  109.8829
    CHARGE:  cpu time    0.1363: real time    0.1363
    --------------------------------------------
      LOOP:  cpu time  332.9542: real time  333.0703

 eigenvalue-minimisations  :     0
 total energy-change (2. order) :-0.5853719E-05  (-0.3525162E-05)
 number of electron    1402.0004010 magnetization       2.0000006
 augmentation part      608.6459095 magnetization       0.8642612

 Free energy of the ion-electron system (eV)
  ---------------------------------------------------
  alpha Z        PSCENC =      9536.06362079
  Ewald energy   TEWEN  =   -118133.24618839
  -Hartree energ DENC   =    -44597.31509045
  -exchange      EXHF   =      5256.07580345
  -V(xc)+E(xc)   XCENC  =      4706.06116751
  PAW double counting   =    126852.40829005  -148373.08513721
  entropy T*S    EENTRO =        -0.00000000
  eigenvalues    EBANDS =    -13502.28448129
  atomic energy  EATOM  =    176734.70858493
  ---------------------------------------------------
  free energy    TOTEN  =     -1520.61523657 eV

  energy without entropy =    -1520.61523657  energy(sigma->0) =    -1520.61523657
  exchange ACFDT corr.  =        -0.00000000  see jH, gK, PRB 81, 115126


--------------------------------------------------------------------------------------------------------


  average scaling for gradient   0.9729


 average (electrostatic) potential at core
  the test charge radii are     1.0314  1.2793  0.7215
  (the norm of the test charge is              1.0000)
       1 -20.0515       2 -20.0323       3 -19.9382       4 -19.9128       5 -19.8812
       6 -19.9260       7 -20.0103       8 -19.9260       9 -20.0005      10 -20.1381
      11 -19.9021      12 -19.9371      13 -20.0700      14 -20.3348      15 -20.0942
      16 -19.9679      17 -20.3855      18 -20.4330      19 -20.3190      20 -20.0378
      21 -20.0378      22 -20.2750      23 -20.0404      24 -19.9366      25 -20.3929
      26 -20.0070      27 -20.0084      28 -19.9688      29 -20.3865      30 -20.4345
      31 -20.3201      32 -20.2762      33 -19.9363      34 -20.0513      35 -19.9360
      36 -20.0317      37 -20.0086      38 -20.3906      39 -20.0056      40 -19.9778
      41 -19.9367      42 -19.9367      43 -20.0105      44 -19.9258      45 -19.9272
      46 -19.9790      47 -20.0334      48 -19.9959      49 -19.9784      50 -19.9006
      51 -20.0688      52 -20.0394      53 -20.0364      54 -20.1028      55 -19.9267
      56 -19.9618      57 -19.9295      58 -19.8799      59 -19.9114      60 -19.9366
      61 -20.0309      62 -19.9182      63 -19.9202      64 -51.9161      65 -63.5675
      66 -63.6969      67 -63.4387      68 -63.2957      69 -63.5061      70 -63.4043
      71 -63.3600      72 -63.5080      73 -63.0728      74 -63.0451      75 -63.5702
      76 -63.4938      77 -63.3501      78 -63.3158      79 -63.0302      80 -63.0738
      81 -63.5210      82 -63.7456      83 -63.5815      84 -63.6869      85 -63.2487
      86 -63.0416      87 -63.7650      88 -63.5494      89 -63.3807      90 -63.0384
      91 -63.2190      92 -63.6944      93 -63.5959      94 -63.5710      95 -63.4942
      96 -63.4185      97 -63.3818      98 -63.0304      99 -63.0736     100 -63.6950
     101 -64.6382     102 -63.2251     103 -63.5824     104 -64.6269     105 -63.1255
     106 -63.7663     107 -63.5491     108 -63.5653     109 -63.5794     110 -63.0377
     111 -63.2956     112 -63.5062     113 -63.2202     114 -63.5091     115 -63.3603
     116 -63.5733     117 -63.4186     118 -63.3814     119 -63.0953     120 -63.2621
     121 -63.5340     122 -64.6368     123 -65.0733     124 -63.6909     125 -64.6247
     126 -63.1249     127 -64.8458     128 -63.6117     129 -63.5654     130 -63.5794
     131 -63.0926     132 -63.4895     133 -63.5671     134 -63.6974     135 -63.2246
     136 -63.5047     137 -63.1412     138 -63.0177     139 -63.4039     140 -63.3803
     141 -63.4961     142 -63.6330     143 -63.0408     144 -63.2489     145 -63.3978
     146 -63.4469     147 -63.7452     148 -63.5202     149 -63.0519     150 -63.0092
     151 -63.3156     152 -63.3499     153 -63.4796     154 -63.4859     155 -63.0441
     156 -63.0718     157 -63.3872     158 -63.3257     159 -63.5333     160 -63.5046
 
 
 
 E-fermi :   1.0907     XC(G=0):  -8.8810     alpha+bet :-11.2871


 spin component 1

 k-point     1 :       0.2500    0.2500    0.2500
  band No.  band energies     occupation 
      1     -20.5256      1.00000
      2     -19.9815      1.00000
      3     -19.8784      1.00000
      4     -19.8279      1.00000
      5     -19.7749      1.00000
      6     -19.6426      1.00000
      7     -19.6269      1.00000
      8     -19.5748      1.00000
      9     -19.5401      1.00000
     10     -19.4948      1.00000
     11     -19.4349      1.00000
     12     -19.3876      1.00000
     13     -19.3276      1.00000
     14     -19.2791      1.00000
     15     -19.2553      1.00000
     16     -19.2287      1.00000
     17     -19.2079      1.00000
     18     -19.1912      1.00000
     19     -19.1250      1.00000
     20     -19.1180      1.00000
     21     -19.0855      1.00000
     22     -19.0542      1.00000
     23     -19.0371      1.00000
     24     -19.0106      1.00000
     25     -18.9889      1.00000
     26     -18.9763      1.00000
     27     -18.9442      1.00000
     28     -18.9277      1.00000
     29     -18.9100      1.00000
     30     -18.8922      1.00000
     31     -18.8833      1.00000
     32     -18.8756      1.00000
     33     -18.8570      1.00000
     34     -18.8435      1.00000
     35     -18.8254      1.00000
     36     -18.8074      1.00000
     37     -18.7992      1.00000
     38     -18.7777      1.00000
     39     -18.7667      1.00000
     40     -18.7463      1.00000
     41     -18.7370      1.00000
     42     -18.7170      1.00000
     43     -18.6944      1.00000
     44     -18.6750      1.00000
     45     -18.6705      1.00000
     46     -18.6588      1.00000
     47     -18.6475      1.00000
     48     -18.6296      1.00000
     49     -18.6072      1.00000
     50     -18.5998      1.00000
     51     -18.5861      1.00000
     52     -18.5762      1.00000
     53     -18.5635      1.00000
     54     -18.5575      1.00000
     55     -18.5437      1.00000
     56     -18.5316      1.00000
     57     -18.5268      1.00000
     58     -18.5045      1.00000
     59     -18.4949      1.00000
     60     -18.4845      1.00000
     61     -18.4670      1.00000
     62     -18.4628      1.00000
     63     -18.4503      1.00000
     64     -18.4315      1.00000
     65     -18.4292      1.00000
     66     -18.4153      1.00000
     67     -18.4131      1.00000
     68     -18.4063      1.00000
     69     -18.3900      1.00000
     70     -18.3773      1.00000
     71     -18.3715      1.00000
     72     -18.3510      1.00000
     73     -18.3356      1.00000
     74     -18.3309      1.00000
     75     -18.3278      1.00000
     76     -18.3012      1.00000
     77     -18.2944      1.00000
     78     -18.2711      1.00000
     79     -18.2632      1.00000
     80     -18.2470      1.00000
     81     -18.2203      1.00000
     82     -18.2081      1.00000
     83     -18.1900      1.00000
     84     -18.1800      1.00000
     85     -18.1687      1.00000
     86     -18.1624      1.00000
     87     -18.1562      1.00000
     88     -18.1530      1.00000
     89     -18.1438      1.00000
     90     -18.1393      1.00000
     91     -18.1202      1.00000
     92     -18.1059      1.00000
     93     -18.1041      1.00000
     94     -18.1003      1.00000
     95     -18.0591      1.00000
     96     -18.0430      1.00000
     97     -14.4593      1.00000
     98     -14.4197      1.00000
     99     -14.4015      1.00000
    100     -14.3681      1.00000
    101     -14.3573      1.00000
    102     -14.3532      1.00000
    103     -14.3290      1.00000
    104     -14.3159      1.00000
    105     -14.3018      1.00000
    106     -14.2988      1.00000
    107     -14.2876      1.00000
    108     -14.2867      1.00000
    109     -14.2851      1.00000
    110     -14.2820      1.00000
    111     -14.2761      1.00000
    112     -14.2652      1.00000
    113     -14.2601      1.00000
    114     -14.2570      1.00000
    115     -14.2537      1.00000
    116     -14.2484      1.00000
    117     -14.2457      1.00000
    118     -14.2390      1.00000
    119     -14.2340      1.00000
    120     -14.2328      1.00000
    121     -14.2209      1.00000
    122     -14.2140      1.00000
    123     -14.2121      1.00000
    124     -14.2047      1.00000
    125     -14.2021      1.00000
    126     -14.1938      1.00000
    127     -14.1883      1.00000
    128     -14.1853      1.00000
    129     -14.1820      1.00000
    130     -14.1751      1.00000
    131     -14.1740      1.00000
    132     -14.1660      1.00000
    133     -14.1633      1.00000
    134     -14.1585      1.00000
    135     -14.1547      1.00000
    136     -14.1490      1.00000
    137     -14.1470      1.00000
    138     -14.1424      1.00000
    139     -14.1351      1.00000
    140     -14.1336      1.00000
    141     -14.1277      1.00000
    142     -14.1149      1.00000
    143     -14.1098      1.00000
    144     -14.1066      1.00000
    145     -14.1006      1.00000
    146     -14.0984      1.00000
    147     -14.0961      1.00000
    148     -14.0908      1.00000
    149     -14.0866      1.00000
    150     -14.0798      1.00000
    151     -14.0759      1.00000
    152     -14.0748      1.00000
    153     -14.0698      1.00000
    154     -14.0656      1.00000
    155     -14.0628      1.00000
    156     -14.0584      1.00000
    157     -14.0576      1.00000
    158     -14.0548      1.00000
    159     -14.0512      1.00000
    160     -14.0495      1.00000
    161     -14.0474      1.00000
    162     -14.0453      1.00000
    163     -14.0401      1.00000
    164     -14.0365      1.00000
    165     -14.0341      1.00000
    166     -14.0319      1.00000
    167     -14.0293      1.00000
    168     -14.0257      1.00000
    169     -14.0235      1.00000
    170     -14.0217      1.00000
    171     -14.0169      1.00000
    172     -14.0136      1.00000
    173     -14.0121      1.00000
    174     -14.0094      1.00000
    175     -14.0066      1.00000
    176     -14.0044      1.00000
    177     -14.0016      1.00000
    178     -13.9994      1.00000
    179     -13.9971      1.00000
    180     -13.9933      1.00000
    181     -13.9901      1.00000
    182     -13.9889      1.00000
    183     -13.9869      1.00000
    184     -13.9850      1.00000
    185     -13.9821      1.00000
    186     -13.9789      1.00000
    187     -13.9766      1.00000
    188     -13.9747      1.00000
    189     -13.9729      1.00000
    190     -13.9714      1.00000
    191     -13.9684      1.00000
    192     -13.9651      1.00000
    193     -13.9628      1.00000
    194     -13.9597      1.00000
    195     -13.9570      1.00000
    196     -13.9548      1.00000
    197     -13.9538      1.00000
    198     -13.9490      1.00000
    199     -13.9476      1.00000
    200     -13.9444      1.00000
    201     -13.9417      1.00000
    202     -13.9396      1.00000
    203     -13.9383      1.00000
    204     -13.9361      1.00000
    205     -13.9320      1.00000
    206     -13.9291      1.00000
    207     -13.9274      1.00000
    208     -13.9255      1.00000
    209     -13.9208      1.00000
    210     -13.9143      1.00000
    211     -13.9111      1.00000
    212     -13.9084      1.00000
    213     -13.9032      1.00000
    214     -13.8991      1.00000
    215     -13.8986      1.00000
    216     -13.8940      1.00000
    217     -13.8928      1.00000
    218     -13.8898      1.00000
    219     -13.8858      1.00000
    220     -13.8844      1.00000
    221     -13.8809      1.00000
    222     -13.8794      1.00000
    223     -13.8751      1.00000
    224     -13.8698      1.00000
    225     -13.8676      1.00000
    226     -13.8662      1.00000
    227     -13.8626      1.00000
    228     -13.8617      1.00000
    229     -13.8594      1.00000
    230     -13.8589      1.00000
    231     -13.8556      1.00000
    232     -13.8530      1.00000
    233     -13.8523      1.00000
    234     -13.8492      1.00000
    235     -13.8481      1.00000
    236     -13.8464      1.00000
    237     -13.8444      1.00000
    238     -13.8432      1.00000
    239     -13.8399      1.00000
    240     -13.8381      1.00000
    241     -13.8347      1.00000
    242     -13.8328      1.00000
    243     -13.8321      1.00000
    244     -13.8296      1.00000
    245     -13.8287      1.00000
    246     -13.8263      1.00000
    247     -13.8233      1.00000
    248     -13.8209      1.00000
    249     -13.8184      1.00000
    250     -13.8158      1.00000
    251     -13.8146      1.00000
    252     -13.8110      1.00000
    253     -13.8085      1.00000
    254     -13.8065      1.00000
    255     -13.8045      1.00000
    256     -13.8023      1.00000
    257     -13.7997      1.00000
    258     -13.7975      1.00000
    259     -13.7952      1.00000
    260     -13.7940      1.00000
    261     -13.7916      1.00000
    262     -13.7902      1.00000
    263     -13.7884      1.00000
    264     -13.7865      1.00000
    265     -13.7841      1.00000
    266     -13.7829      1.00000
    267     -13.7807      1.00000
    268     -13.7786      1.00000
    269     -13.7754      1.00000
    270     -13.7729      1.00000
    271     -13.7716      1.00000
    272     -13.7682      1.00000
    273     -13.7667      1.00000
    274     -13.7661      1.00000
    275     -13.7637      1.00000
    276     -13.7609      1.00000
    277     -13.7574      1.00000
    278     -13.7567      1.00000
    279     -13.7539      1.00000
    280     -13.7506      1.00000
    281     -13.7486      1.00000
    282     -13.7469      1.00000
    283     -13.7446      1.00000
    284     -13.7416      1.00000
    285     -13.7397      1.00000
    286     -13.7377      1.00000
    287     -13.7341      1.00000
    288     -13.7327      1.00000
    289     -13.7285      1.00000
    290     -13.7261      1.00000
    291     -13.7243      1.00000
    292     -13.7220      1.00000
    293     -13.7199      1.00000
    294     -13.7180      1.00000
    295     -13.7116      1.00000
    296     -13.7089      1.00000
    297     -13.7043      1.00000
    298     -13.7011      1.00000
    299     -13.6996      1.00000
    300     -13.6974      1.00000
    301     -13.6948      1.00000
    302     -13.6939      1.00000
    303     -13.6897      1.00000
    304     -13.6880      1.00000
    305     -13.6858      1.00000
    306     -13.6838      1.00000
    307     -13.6820      1.00000
    308     -13.6777      1.00000
    309     -13.6754      1.00000
    310     -13.6749      1.00000
    311     -13.6718      1.00000
    312     -13.6694      1.00000
    313     -13.6654      1.00000
    314     -13.6644      1.00000
    315     -13.6605      1.00000
    316     -13.6579      1.00000
    317     -13.6555      1.00000
    318     -13.6536      1.00000
    319     -13.6506      1.00000
    320     -13.6487      1.00000
    321     -13.6426      1.00000
    322     -13.6411      1.00000
    323     -13.6407      1.00000
    324     -13.6363      1.00000
    325     -13.6349      1.00000
    326     -13.6334      1.00000
    327     -13.6292      1.00000
    328     -13.6277      1.00000
    329     -13.6258      1.00000
    330     -13.6237      1.00000
    331     -13.6201      1.00000
    332     -13.6174      1.00000
    333     -13.6162      1.00000
    334     -13.6145      1.00000
    335     -13.6112      1.00000
    336     -13.6088      1.00000
    337     -13.6073      1.00000
    338     -13.6040      1.00000
    339     -13.6029      1.00000
    340     -13.5998      1.00000
    341     -13.5968      1.00000
    342     -13.5940      1.00000
    343     -13.5890      1.00000
    344     -13.5855      1.00000
    345     -13.5831      1.00000
    346     -13.5790      1.00000
    347     -13.5766      1.00000
    348     -13.5746      1.00000
    349     -13.5720      1.00000
    350     -13.5675      1.00000
    351     -13.5621      1.00000
    352     -13.5544      1.00000
    353     -13.5508      1.00000
    354     -13.5472      1.00000
    355     -13.5377      1.00000
    356     -13.5338      1.00000
    357     -13.5274      1.00000
    358     -13.5091      1.00000
    359     -13.5059      1.00000
    360     -13.4969      1.00000
    361     -13.4706      1.00000
    362     -13.4574      1.00000
    363     -13.4503      1.00000
    364     -13.4356      1.00000
    365     -13.4062      1.00000
    366     -13.3957      1.00000
    367     -13.3768      1.00000
    368     -13.3649      1.00000
    369     -13.3513      1.00000
    370     -13.3385      1.00000
    371     -13.3246      1.00000
    372     -13.3085      1.00000
    373     -13.2991      1.00000
    374     -13.2894      1.00000
    375     -13.2747      1.00000
    376     -13.2642      1.00000
    377     -13.2511      1.00000
    378     -13.2387      1.00000
    379     -13.2248      1.00000
    380     -13.2081      1.00000
    381     -13.1999      1.00000
    382     -13.1835      1.00000
    383     -13.1650      1.00000
    384     -13.1551      1.00000
    385     -13.1354      1.00000
    386     -13.1233      1.00000
    387     -13.1015      1.00000
    388     -13.0891      1.00000
    389     -13.0776      1.00000
    390     -13.0589      1.00000
    391     -13.0421      1.00000
    392     -13.0260      1.00000
    393     -12.9948      1.00000
    394     -12.9862      1.00000
    395     -12.9762      1.00000
    396     -12.9578      1.00000
    397     -12.9257      1.00000
    398     -12.9120      1.00000
    399     -12.9077      1.00000
    400     -12.8910      1.00000
    401     -12.8704      1.00000
    402     -12.8673      1.00000
    403     -12.8431      1.00000
    404     -12.8267      1.00000
    405     -12.8158      1.00000
    406     -12.8069      1.00000
    407     -12.7942      1.00000
    408     -12.7695      1.00000
    409     -12.7545      1.00000
    410     -12.7367      1.00000
    411     -12.6949      1.00000
    412      -6.9163      1.00000
    413      -6.8401      1.00000
    414      -6.7823      1.00000
    415      -6.6048      1.00000
    416      -6.3013      1.00000
    417      -6.2385      1.00000
    418      -6.1935      1.00000
    419      -6.1491      1.00000
    420      -6.0777      1.00000
    421      -6.0296      1.00000
    422      -5.9748      1.00000
    423      -5.9329      1.00000
    424      -5.8663      1.00000
    425      -5.8340      1.00000
    426      -5.8034      1.00000
    427      -5.7614      1.00000
    428      -5.7248      1.00000
    429      -5.6838      1.00000
    430      -5.6579      1.00000
    431      -5.6262      1.00000
    432      -5.5915      1.00000
    433      -5.5670      1.00000
    434      -5.5616      1.00000
    435      -5.5361      1.00000
    436      -5.5243      1.00000
    437      -5.4798      1.00000
    438      -5.4547      1.00000
    439      -5.4354      1.00000
    440      -5.3954      1.00000
    441      -5.3530      1.00000
    442      -5.3248      1.00000
    443      -5.2938      1.00000
    444      -5.2381      1.00000
    445      -5.2136      1.00000
    446      -5.1827      1.00000
    447      -5.1613      1.00000
    448      -5.1134      1.00000
    449      -5.0689      1.00000
    450      -5.0152      1.00000
    451      -4.9910      1.00000
    452      -4.9518      1.00000
    453      -4.9309      1.00000
    454      -4.8312      1.00000
    455      -4.7979      1.00000
    456      -4.7702      1.00000
    457      -4.7474      1.00000
    458      -4.7051      1.00000
    459      -4.6604      1.00000
    460      -4.6247      1.00000
    461      -4.5706      1.00000
    462      -4.4969      1.00000
    463      -4.4350      1.00000
    464      -4.3840      1.00000
    465      -4.3589      1.00000
    466      -4.3360      1.00000
    467      -4.3100      1.00000
    468      -4.3075      1.00000
    469      -4.2919      1.00000
    470      -4.2603      1.00000
    471      -4.2056      1.00000
    472      -4.1748      1.00000
    473      -4.1586      1.00000
    474      -4.1075      1.00000
    475      -4.0473      1.00000
    476      -3.9712      1.00000
    477      -3.9169      1.00000
    478      -3.8671      1.00000
    479      -3.8272      1.00000
    480      -3.8019      1.00000
    481      -3.7543      1.00000
    482      -3.7368      1.00000
    483      -3.6924      1.00000
    484      -3.6751      1.00000
    485      -3.6181      1.00000
    486      -3.5858      1.00000
    487      -3.5695      1.00000
    488      -3.5063      1.00000
    489      -3.4781      1.00000
    490      -3.4595      1.00000
    491      -3.4264      1.00000
    492      -3.3858      1.00000
    493      -3.3466      1.00000
    494      -3.3214      1.00000
    495      -3.2897      1.00000
    496      -3.2668      1.00000
    497      -3.2478      1.00000
    498      -3.2156      1.00000
    499      -3.1939      1.00000
    500      -3.1663      1.00000
    501      -3.1605      1.00000
    502      -3.1399      1.00000
    503      -3.1096      1.00000
    504      -3.0610      1.00000
    505      -3.0417      1.00000
    506      -3.0244      1.00000
    507      -2.9476      1.00000
    508      -2.9389      1.00000
    509      -2.9092      1.00000
    510      -2.8811      1.00000
    511      -2.8393      1.00000
    512      -2.8175      1.00000
    513      -2.7762      1.00000
    514      -2.7589      1.00000
    515      -2.7351      1.00000
    516      -2.7169      1.00000
    517      -2.7112      1.00000
    518      -2.6881      1.00000
    519      -2.6482      1.00000
    520      -2.6227      1.00000
    521      -2.5877      1.00000
    522      -2.5622      1.00000
    523      -2.5321      1.00000
    524      -2.5168      1.00000
    525      -2.4878      1.00000
    526      -2.4553      1.00000
    527      -2.4418      1.00000
    528      -2.4221      1.00000
    529      -2.4093      1.00000
    530      -2.3886      1.00000
    531      -2.3572      1.00000
    532      -2.3406      1.00000
    533      -2.3126      1.00000
    534      -2.2734      1.00000
    535      -2.2526      1.00000
    536      -2.2275      1.00000
    537      -2.2048      1.00000
    538      -2.1855      1.00000
    539      -2.1696      1.00000
    540      -2.1359      1.00000
    541      -2.1123      1.00000
    542      -2.1045      1.00000
    543      -2.0940      1.00000
    544      -2.0826      1.00000
    545      -2.0567      1.00000
    546      -2.0427      1.00000
    547      -2.0368      1.00000
    548      -2.0281      1.00000
    549      -2.0160      1.00000
    550      -1.9923      1.00000
[...]
      1.97431      3.03403      5.93845        -0.006572     -0.000227     -0.018069
      3.88585      7.57582      7.37336        -0.006761     -0.003605      0.007906
      3.90700      4.54810      1.60943        -0.003278      0.001636     -0.002429
      5.95513      3.03481      2.84690        -0.033048     -0.000440     -0.005644
      5.89605      3.03479      0.07160        -0.005184     -0.000231     -0.003668
      4.03643      4.53967      4.17385         0.023326     -0.004048     -0.007164
      7.86351      4.55748     -1.31576        -0.000550      0.002647      0.009333
      2.10718      3.03461      2.83693         0.006055     -0.000232     -0.007893
      9.81574      3.03428      0.12478        -0.010359      0.000072      0.013239
      0.03600      4.56227      4.28930         0.010079     -0.005830      0.002831
     11.82085      4.55652     -1.41158        -0.009742     -0.003109      0.004882
      9.93399      3.03452      2.73359        -0.005821      0.000176     -0.000192
      1.94024      3.03401      0.18592        -0.012895     -0.000547      0.017103
      7.96820      1.51686      7.07491         0.006041     -0.001295     -0.002073
      3.88532      1.51671      7.38522        -0.003430      0.000640     -0.004984
      7.86966      4.54955      4.47160         0.011102      0.005235     -0.012036
      7.97197      7.57358      7.07638        -0.000426      0.003517     -0.001543
      1.94331      9.10011      0.12421        -0.000665      0.000293     -0.008818
      9.92117      9.10058      2.74084        -0.001504      0.000849     -0.007776
     11.83054     10.62778     -1.42431        -0.011903     -0.006160     -0.002252
      0.03373     10.62699      4.29352        -0.011730     -0.000371     -0.000028
      9.81468      9.10004      0.12555         0.005742     -0.000039      0.002651
      2.04744      9.10040      2.74649        -0.003386      0.000019     -0.001189
      7.87411     10.62536     -1.32541         0.002352     -0.004101      0.008110
      3.97659     10.62262      4.20615         0.000040     -0.006087     -0.003858
      5.90052      9.10101      0.03458         0.007808      0.000495     -0.002815
      5.95280      9.10066      2.84621        -0.004037     -0.000125      0.004538
      3.88222     10.62278      1.57769         0.001829     -0.004341     -0.010983
      7.97243     10.62722      1.29090         0.001082     -0.006305     -0.002489
      1.94648      9.10040      5.91628        -0.002328      0.000300     -0.004149
      9.91864      9.10030      8.53063        -0.001349      0.000234     -0.002388
     11.83089     10.62714      4.35724         0.003381      0.002649     -0.005098
      0.03132     10.62290     10.09052        -0.001655     -0.000445     -0.002363
      9.81529      9.09985      5.91338         0.006488     -0.000606      0.002487
      2.04636      9.10018      8.53262        -0.003998     -0.000037      0.000506
      7.87418     10.62839      4.46392         0.003702      0.003508     -0.000712
      3.98008     10.62444      9.98819        -0.005567     -0.004250     -0.003994
      5.89892      9.10120      5.81170         0.020445     -0.001530     -0.005499
      5.96064      9.10136      8.63388        -0.001720      0.000463      0.001381
      3.88543     10.62447      7.37355        -0.004077      0.003929      0.006868
      7.97235     10.62724      7.07626        -0.001327     -0.003533     -0.002186
 -----------------------------------------------------------------------------------
    total drift:                                0.023634      0.001167      0.142398


--------------------------------------------------------------------------------------------------------



  FREE ENERGIE OF THE ION-ELECTRON SYSTEM (eV)
  ---------------------------------------------------
  free  energy   TOTEN  =     -1520.61702803 eV

  energy  without entropy=    -1520.61702803  energy(sigma->0) =    -1520.61702803
 
 d Force = 0.6612983E-04[ 0.269E-04, 0.105E-03]  d Energy = 0.8468113E-04-0.186E-04
 d Force = 0.2268518E+00[ 0.226E+00, 0.228E+00]  d Ewald  = 0.2268518E+00-0.912E-07


--------------------------------------------------------------------------------------------------------


    POTLOK:  cpu time    0.3036: real time    0.3036


--------------------------------------------------------------------------------------------------------




--------------------------------------------------------------------------------------------------------


  
 reached required accuracy - stopping structural energy minimisation
 writing wavefunctions
     LOOP+:  cpu time 1161.6635: real time 1162.2925
    4ORBIT:  cpu time    0.0000: real time    0.0000
 


 total charge     
 
# of ion       s       p       d       tot
------------------------------------------
    1        0.753   1.008  10.305  12.066
    2        0.751   1.007  10.305  12.063
    3        0.751   1.004  10.302  12.057
    4        0.652   0.818  10.266  11.737
    5        0.652   0.820  10.267  11.739
    6        0.752   1.008  10.305  12.066
    7        0.753   1.012  10.308  12.073
    8        0.652   0.820  10.267  11.739
    9        0.751   1.003  10.301  12.055
   10        0.747   0.989  10.294  12.030
   11        0.652   0.819  10.267  11.738
   12        0.652   0.824  10.271  11.747
   13        0.655   0.824  10.268  11.747
   14        0.759   1.009  10.304  12.072
   15        0.751   1.003  10.302  12.056
   16        0.653   0.824  10.270  11.748
   17        0.667   0.832  10.267  11.766
   18        0.755   0.993  10.297  12.045
   19        0.755   1.004  10.302  12.061
   20        0.653   0.822  10.268  11.744
   21        0.752   1.009  10.306  12.066
   22        0.663   0.837  10.278  11.778
   23        0.752   1.004  10.302  12.058
   24        0.654   0.829  10.274  11.757
   25        0.753   1.001  10.301  12.055
   26        0.752   1.005  10.303  12.060
   27        0.752   1.008  10.306  12.066
   28        0.653   0.824  10.270  11.748
   29        0.667   0.832  10.266  11.766
   30        0.755   0.992  10.296  12.044
   31        0.755   1.004  10.302  12.061
   32        0.663   0.837  10.278  11.778
   33        0.655   0.829  10.273  11.756
   34        0.753   1.008  10.305  12.066
   35        0.655   0.829  10.273  11.756
   36        0.651   0.821  10.270  11.741
   37        0.752   1.008  10.306  12.066
   38        0.753   1.001  10.301  12.055
   39        0.752   1.006  10.303  12.061
   40        0.652   0.823  10.270  11.746
   41        0.652   0.824  10.271  11.747
   42        0.654   0.829  10.274  11.756
   43        0.753   1.012  10.308  12.073
   44        0.752   1.009  10.305  12.066
   45        0.652   0.819  10.267  11.738
   46        0.652   0.823  10.270  11.746
   47        0.653   0.822  10.269  11.744
   48        0.751   1.000  10.300  12.050
   49        0.750   0.995  10.297  12.042
   50        0.652   0.820  10.267  11.739
   51        0.655   0.824  10.269  11.748
   52        0.752   1.004  10.302  12.058
   53        0.752   1.009  10.306  12.067
   54        0.655   0.820  10.266  11.741
   55        0.652   0.816  10.264  11.732
   56        0.751   1.002  10.301  12.054
   57        0.750   0.997  10.298  12.045
   58        0.652   0.820  10.267  11.739
   59        0.652   0.819  10.266  11.737
   60        0.751   1.004  10.303  12.058
   61        0.751   1.007  10.305  12.063
   62        0.652   0.817  10.265  11.734
   63        0.651   0.814  10.263  11.729
   64        0.671   1.001   6.563   8.236
   65        1.583   3.570   0.000   5.153
   66        1.584   3.575   0.000   5.159
   67        1.577   3.605   0.000   5.182
   68        1.580   3.586   0.000   5.166
   69        1.578   3.613   0.000   5.191
   70        1.577   3.610   0.000   5.187
   71        1.577   3.611   0.000   5.188
   72        1.578   3.612   0.000   5.190
   73        1.580   3.582   0.000   5.162
   74        1.579   3.580   0.000   5.159
   75        1.584   3.576   0.000   5.159
   76        1.584   3.571   0.000   5.155
   77        1.577   3.612   0.000   5.190
   78        1.577   3.609   0.000   5.187
   79        1.580   3.582   0.000   5.161
   80        1.580   3.575   0.000   5.155
   81        1.584   3.569   0.000   5.152
   82        1.583   3.575   0.000   5.158
   83        1.578   3.612   0.000   5.189
   84        1.578   3.611   0.000   5.189
   85        1.579   3.586   0.000   5.165
   86        1.579   3.582   0.000   5.161
   87        1.584   3.564   0.000   5.148
   88        1.584   3.573   0.000   5.157
   89        1.577   3.611   0.000   5.188
   90        1.580   3.580   0.000   5.160
   91        1.581   3.579   0.000   5.160
   92        1.584   3.572   0.000   5.156
   93        1.583   3.568   0.000   5.151
   94        1.584   3.576   0.000   5.159
   95        1.584   3.571   0.000   5.155
   96        1.577   3.610   0.000   5.187
   97        1.577   3.611   0.000   5.188
   98        1.580   3.582   0.000   5.161
   99        1.580   3.575   0.000   5.155
  100        1.584   3.572   0.000   5.156
  101        1.587   3.541   0.000   5.128
  102        1.580   3.581   0.000   5.161
  103        1.578   3.612   0.000   5.189
  104        1.589   3.519   0.000   5.108
  105        1.579   3.582   0.000   5.161
  106        1.584   3.564   0.000   5.148
  107        1.584   3.573   0.000   5.157
  108        1.578   3.613   0.000   5.191
  109        1.576   3.616   0.000   5.192
  110        1.580   3.581   0.000   5.160
  111        1.580   3.586   0.000   5.166
  112        1.578   3.613   0.000   5.191
  113        1.581   3.579   0.000   5.160
  114        1.578   3.612   0.000   5.190
  115        1.577   3.611   0.000   5.188
  116        1.583   3.570   0.000   5.153
  117        1.577   3.610   0.000   5.187
  118        1.577   3.611   0.000   5.188
  119        1.579   3.579   0.000   5.158
  120        1.581   3.576   0.000   5.156
  121        1.584   3.571   0.000   5.155
  122        1.587   3.541   0.000   5.128
  123        1.585   3.557   0.000   5.142
  124        1.578   3.608   0.000   5.186
  125        1.589   3.519   0.000   5.108
  126        1.579   3.582   0.000   5.161
  127        1.591   3.528   0.000   5.119
  128        1.583   3.570   0.000   5.153
  129        1.578   3.613   0.000   5.191
  130        1.576   3.616   0.000   5.193
  131        1.579   3.577   0.000   5.156
  132        1.578   3.567   0.000   5.146
  133        1.583   3.570   0.000   5.153
  134        1.584   3.575   0.000   5.159
  135        1.580   3.581   0.000   5.161
  136        1.583   3.570   0.000   5.153
  137        1.579   3.584   0.000   5.163
  138        1.579   3.579   0.000   5.158
  139        1.577   3.610   0.000   5.187
  140        1.577   3.611   0.000   5.188
  141        1.583   3.566   0.000   5.149
  142        1.583   3.566   0.000   5.149
  143        1.579   3.582   0.000   5.161
  144        1.579   3.586   0.000   5.165
  145        1.577   3.611   0.000   5.188
  146        1.577   3.609   0.000   5.185
  147        1.583   3.575   0.000   5.158
  148        1.584   3.569   0.000   5.153
  149        1.579   3.578   0.000   5.157
  150        1.579   3.578   0.000   5.157
  151        1.577   3.610   0.000   5.187
  152        1.577   3.612   0.000   5.190
  153        1.583   3.566   0.000   5.149
  154        1.583   3.568   0.000   5.151
  155        1.579   3.580   0.000   5.160
  156        1.580   3.583   0.000   5.162
  157        1.577   3.610   0.000   5.187
  158        1.577   3.608   0.000   5.185
  159        1.584   3.572   0.000   5.155
  160        1.583   3.570   0.000   5.153
--------------------------------------------------
tot        196.765 402.757 654.5871254.109
 


 magnetization (x)
 
# of ion       s       p       d       tot
------------------------------------------
    1       -0.000  -0.000  -0.000  -0.000
    2       -0.000  -0.000   0.000  -0.000
    3       -0.000  -0.000   0.000  -0.000
    4       -0.000   0.000   0.000   0.000
    5        0.000  -0.000   0.000   0.000
    6       -0.000  -0.000   0.000  -0.000
    7       -0.000   0.000   0.000   0.000
    8       -0.000  -0.000  -0.000  -0.000
    9       -0.000  -0.000   0.000  -0.000
   10        0.000   0.000   0.000   0.000
   11       -0.000  -0.000   0.000  -0.000
   12       -0.000  -0.000   0.000   0.000
   13       -0.000  -0.000   0.000  -0.000
   14        0.001   0.004   0.003   0.007
   15       -0.000  -0.000   0.000  -0.000
   16       -0.000   0.000   0.000   0.000
   17        0.001   0.003   0.001   0.005
   18       -0.000   0.001   0.003   0.004
   19        0.000   0.001   0.001   0.002
   20       -0.000  -0.000  -0.000  -0.000
   21       -0.000   0.000   0.000   0.000
   22       -0.001  -0.002  -0.000  -0.003
   23        0.000   0.000   0.000   0.000
   24       -0.000  -0.000  -0.000  -0.000
   25       -0.001  -0.001   0.002   0.000
   26       -0.000  -0.000   0.000  -0.000
   27       -0.000  -0.000   0.000  -0.000
   28       -0.000   0.000   0.000   0.000
   29        0.001   0.003   0.001   0.005
   30       -0.000   0.002   0.003   0.004
   31        0.000   0.001   0.001   0.002
   32       -0.001  -0.002  -0.000  -0.003
   33        0.000  -0.000   0.000  -0.000
   34       -0.000  -0.000  -0.000  -0.000
   35       -0.000  -0.000   0.000  -0.000
   36       -0.000  -0.000  -0.000  -0.000
   37       -0.000  -0.000   0.000  -0.000
   38       -0.001  -0.001   0.002   0.000
   39       -0.000  -0.000   0.000  -0.000
   40       -0.000   0.000   0.000   0.000
   41       -0.000  -0.000   0.000   0.000
   42       -0.000  -0.000  -0.000  -0.000
   43       -0.000   0.000   0.000   0.000
   44       -0.000  -0.000   0.000  -0.000
   45       -0.000  -0.000  -0.000  -0.000
   46       -0.000   0.000   0.000   0.000
   47       -0.000  -0.000  -0.000  -0.000
   48       -0.000  -0.000   0.000  -0.000
   49        0.000   0.000   0.000   0.000
   50       -0.000  -0.000   0.000  -0.000
   51       -0.000  -0.000   0.000  -0.000
   52        0.000   0.000   0.000   0.000
   53       -0.000   0.000   0.000   0.000
   54       -0.000  -0.000  -0.000  -0.000
   55       -0.000  -0.000   0.000  -0.000
   56       -0.000   0.000   0.000  -0.000
   57       -0.000   0.000   0.000   0.000
   58        0.000   0.000   0.000   0.000
   59       -0.000   0.000   0.000   0.000
   60       -0.000  -0.000   0.000  -0.000
   61       -0.000  -0.000   0.000  -0.000
   62       -0.000  -0.000  -0.000  -0.000
   63       -0.000  -0.000   0.000  -0.000
   64        0.009   0.009   1.243   1.261
   65        0.000   0.000   0.000   0.000
   66       -0.000  -0.000   0.000  -0.000
   67        0.000   0.000   0.000   0.000
   68       -0.000   0.000   0.000   0.000
   69        0.000   0.001   0.000   0.001
   70        0.000   0.000   0.000   0.000
   71        0.000   0.000   0.000   0.000
   72        0.000   0.003   0.000   0.003
   73        0.000   0.000   0.000   0.000
   74        0.000   0.000   0.000   0.000
   75        0.000   0.000   0.000   0.000
   76        0.000   0.000   0.000   0.000
   77        0.000   0.000   0.000   0.000
   78        0.000   0.000   0.000   0.000
   79        0.000   0.000   0.000   0.000
   80        0.000   0.002   0.000   0.002
   81        0.000   0.000   0.000   0.000
   82       -0.000  -0.000   0.000  -0.000
   83        0.000   0.005   0.000   0.005
   84        0.000   0.004   0.000   0.004
   85       -0.000  -0.000   0.000  -0.000
   86        0.000   0.000   0.000   0.000
   87        0.000   0.007   0.000   0.007
   88        0.000   0.000   0.000   0.000
   89        0.000   0.000   0.000   0.000
   90        0.000   0.000   0.000   0.000
   91       -0.000   0.000   0.000   0.000
   92        0.000   0.001   0.000   0.001
   93        0.000   0.000   0.000   0.000
   94        0.000   0.000   0.000   0.000
   95        0.000   0.000   0.000   0.000
   96        0.000   0.000   0.000   0.000
   97       -0.000   0.000   0.000   0.000
   98        0.000   0.000   0.000   0.000
   99        0.000   0.002   0.000   0.002
  100        0.000   0.001   0.000   0.001
  101       -0.000   0.011   0.000   0.011
  102        0.000   0.006   0.000   0.006
  103        0.000   0.005   0.000   0.005
  104        0.004   0.129   0.000   0.133
  105        0.000   0.000   0.000   0.000
  106        0.000   0.007   0.000   0.008
  107        0.000   0.000   0.000   0.000
  108        0.000   0.003   0.000   0.003
  109       -0.000   0.001   0.000   0.001
  110        0.000   0.000   0.000   0.000
  111       -0.000   0.000   0.000   0.000
  112        0.000   0.001   0.000   0.001
  113       -0.000   0.000   0.000   0.000
  114        0.000   0.003   0.000   0.003
  115        0.000   0.000   0.000   0.000
  116       -0.000   0.000   0.000   0.000
  117        0.000   0.000   0.000   0.000
  118       -0.000   0.000   0.000   0.000
  119       -0.000   0.000   0.000   0.000
  120        0.000   0.003   0.000   0.003
  121       -0.000   0.000   0.000   0.000
  122       -0.000   0.011   0.000   0.011
  123        0.004   0.155   0.000   0.159
  124        0.000   0.003   0.000   0.004
  125        0.004   0.129   0.000   0.132
  126       -0.000   0.000   0.000   0.000
  127        0.002   0.074   0.000   0.076
  128       -0.000   0.000   0.000   0.000
  129        0.000   0.003   0.000   0.003
  130       -0.000   0.001   0.000   0.001
  131       -0.000   0.000   0.000   0.000
  132        0.001   0.009   0.000   0.009
  133        0.000   0.000   0.000   0.000
  134       -0.000  -0.000   0.000  -0.000
  135        0.000   0.006   0.000   0.006
  136       -0.000   0.000   0.000   0.000
  137       -0.000   0.000   0.000   0.000
  138        0.000   0.000   0.000   0.000
  139        0.000   0.000   0.000   0.000
  140        0.000   0.000   0.000   0.000
  141        0.000   0.000   0.000   0.000
  142        0.000   0.000   0.000   0.000
  143        0.000   0.000   0.000   0.000
  144       -0.000  -0.000   0.000  -0.000
  145       -0.000   0.000   0.000   0.000
  146       -0.000   0.000   0.000   0.000
  147       -0.000  -0.000   0.000  -0.000
  148        0.000   0.000   0.000   0.000
  149       -0.000   0.000   0.000   0.000
  150        0.000   0.000   0.000   0.000
  151        0.000   0.000   0.000   0.000
  152       -0.000   0.000   0.000   0.000
  153        0.000   0.000   0.000   0.000
  154        0.000   0.000   0.000   0.000
  155        0.000   0.000   0.000   0.000
  156        0.000   0.000   0.000   0.000
  157        0.000   0.000   0.000   0.000
  158       -0.000  -0.000   0.000  -0.000
  159       -0.000   0.000   0.000   0.000
  160        0.000   0.000   0.000   0.000
--------------------------------------------------
tot          0.023   0.608   1.259   1.889
 

 total amount of memory used by VASP MPI-rank0    81612. kBytes
=======================================================================

   base      :      30000. kBytes
   nonlr-proj:      35814. kBytes
   fftplans  :       1991. kBytes
   grid      :       3603. kBytes
   one-center:        622. kBytes
   HF        :        129. kBytes
   wavefun   :       9453. kBytes
 
  
  
 General timing and accounting informations for this job:
 ========================================================
  
                  Total CPU time used (sec):     6401.647
                            User time (sec):     6007.025
                          System time (sec):      394.623
                         Elapsed time (sec):     6411.425
  
                   Maximum memory used (kb):      333024.
                   Average memory used (kb):           0.
  
                          Minor page faults:     13928210
                          Major page faults:           39
                 Voluntary context switches:        66408
