 vasp.5.4.4.18Apr17-6-g9f103f2a35 (build Jun 06 2017 17:32:29) complex          
  
 executed on      LLNL_Quartz_ifc date 2020.03.10  19:15:37
 running on  288 total cores
 distrk:  each k-point on  288 cores,    1 groups
 distr:  one band on NCORES_PER_BAND=   1 cores,  288 groups


--------------------------------------------------------------------------------------------------------


 INCAR:
 POTCAR:   PAW_PBE Ga_d 06Sep2000                 
 POTCAR:   PAW_PBE Cr_pv 07Sep2000                
 POTCAR:   PAW_PBE O 08Apr2002                    

 ----------------------------------------------------------------------------- 
|                                                                             |
|           W    W    AA    RRRRR   N    N  II  N    N   GGGG   !!!           |
|           W    W   A  A   R    R  NN   N  II  NN   N  G    G  !!!           |
|           W    W  A    A  R    R  N N  N  II  N N  N  G       !!!           |
|           W WW W  AAAAAA  RRRRR   N  N N  II  N  N N  G  GGG   !            |
|           WW  WW  A    A  R   R   N   NN  II  N   NN  G    G                |
|           W    W  A    A  R    R  N    N  II  N    N   GGGG   !!!           |
|                                                                             |
|      For optimal performance we recommend to set                            |
|        NCORE= 4 - approx SQRT( number of cores)                             |
|      NCORE specifies how many cores store one orbital (NPAR=cpu/NCORE).     |
|      This setting can  greatly improve the performance of VASP for DFT.     |
|      The default,   NCORE=1            might be grossly inefficient         |
|      on modern multi-core architectures or massively parallel machines.     |
|      Do your own testing !!!!                                               |
|      Unfortunately you need to use the default for GW and RPA calculations. |
|      (for HF NCORE is supported but not extensively tested yet)             |
|                                                                             |
 ----------------------------------------------------------------------------- 

 POTCAR:   PAW_PBE Ga_d 06Sep2000                 
   VRHFIN =Ga: s2p1                                                             
   LEXCH  = PE                                                                  
   EATOM  =  2149.0616 eV,  157.9516 Ry                                         
                                                                                
   TITEL  = PAW_PBE Ga_d 06Sep2000                                              
   LULTRA =        F    use ultrasoft PP ?                                      
   IUNSCR =        1    unscreen: 0-lin 1-nonlin 2-no                           
   RPACOR =    2.000    partial core radius                                     
   POMASS =   69.723; ZVAL   =   13.000    mass and valenz                      
   RCORE  =    2.300    outmost cutoff radius                                   
   RWIGS  =    2.300; RWIGS  =    1.217    wigner-seitz radius (au A)           
   ENMAX  =  282.697; ENMIN  =  212.022 eV                                      
   ICORE  =        3    local potential                                         
   LCOR   =        T    correct aug charges                                     
   LPAW   =        T    paw PP                                                  
   EAUG   =  490.690                                                            
   DEXC   =    -.001                                                            
   RMAX   =    2.742    core radius for proj-oper                               
   RAUG   =    1.300    factor for augmentation sphere                          
   RDEP   =    2.413    radius for radial grids                                 
   QCUT   =   -4.558; QGAM   =    9.117    optimization parameters              
                                                                                
   Description                                                                  
     l     E      TYP  RCUT    TYP  RCUT                                        
     2   .000     23  2.300                                                     
     2  -.400     23  2.300                                                     
     0   .000     23  2.300                                                     
     0   .000     23  2.300                                                     
     1   .000     23  2.300                                                     
     1   .000     23  2.300                                                     
     3  -.100      7  2.300                                                     
  local pseudopotential read in
  partial core-charges read in
  atomic valenz-charges read in
  non local Contribution for L=           2  read in
    real space projection operators read in
  non local Contribution for L=           2  read in
    real space projection operators read in
  non local Contribution for L=           0  read in
    real space projection operators read in
  non local Contribution for L=           0  read in
    real space projection operators read in
  non local Contribution for L=           1  read in
    real space projection operators read in
  non local Contribution for L=           1  read in
    real space projection operators read in
    PAW grid and wavefunctions read in
 
   number of l-projection  operators is LMAX  =           6
   number of lm-projection operators is LMMAX =          18
 
 POTCAR:   PAW_PBE Cr_pv 07Sep2000                
   VRHFIN =Cr : p6d5s1                                                          
   LEXCH  = PE                                                                  
   EATOM  =  1647.5667 eV,  121.0927 Ry                                         
                                                                                
   TITEL  = PAW_PBE Cr_pv 07Sep2000                                             
   LULTRA =        F    use ultrasoft PP ?                                      
   IUNSCR =        1    unscreen: 0-lin 1-nonlin 2-no                           
   RPACOR =    2.080    partial core radius                                     
   POMASS =   51.996; ZVAL   =   12.000    mass and valenz                      
   RCORE  =    2.300    outmost cutoff radius                                   
   RWIGS  =    2.500; RWIGS  =    1.323    wigner-seitz radius (au A)           
   ENMAX  =  265.683; ENMIN  =  199.262 eV                                      
   RCLOC  =    1.721    cutoff for local pot                                    
   LCOR   =        T    correct aug charges                                     
   LPAW   =        T    paw PP                                                  
   EAUG   =  519.424                                                            
   DEXC   =    -.003                                                            
   RMAX   =    2.829    core radius for proj-oper                               
   RAUG   =    1.300    factor for augmentation sphere                          
   RDEP   =    2.447    radius for radial grids                                 
   QCUT   =   -4.419; QGAM   =    8.838    optimization parameters              
                                                                                
   Description                                                                  
     l     E      TYP  RCUT    TYP  RCUT                                        
     1   .000     23  2.000                                                     
     1   .100     23  2.000                                                     
     2   .000     23  2.300                                                     
     2   .000     23  2.300                                                     
     0   .000     23  2.300                                                     
     0   .000     23  2.300                                                     
     3   .000      7   .000                                                     
  local pseudopotential read in
  partial core-charges read in
  atomic valenz-charges read in
  non local Contribution for L=           1  read in
    real space projection operators read in
  non local Contribution for L=           1  read in
    real space projection operators read in
  non local Contribution for L=           2  read in
    real space projection operators read in
  non local Contribution for L=           2  read in
    real space projection operators read in
  non local Contribution for L=           0  read in
    real space projection operators read in
  non local Contribution for L=           0  read in
    real space projection operators read in
    PAW grid and wavefunctions read in
 
   number of l-projection  operators is LMAX  =           6
   number of lm-projection operators is LMMAX =          18
 
 POTCAR:   PAW_PBE O 08Apr2002                    
   VRHFIN =O: s2p4                                                              
   LEXCH  = PE                                                                  
   EATOM  =   432.3788 eV,   31.7789 Ry                                         
                                                                                
   TITEL  = PAW_PBE O 08Apr2002                                                 
   LULTRA =        F    use ultrasoft PP ?                                      
   IUNSCR =        0    unscreen: 0-lin 1-nonlin 2-no                           
   RPACOR =     .000    partial core radius                                     
   POMASS =   16.000; ZVAL   =    6.000    mass and valenz                      
   RCORE  =    1.520    outmost cutoff radius                                   
   RWIGS  =    1.550; RWIGS  =     .820    wigner-seitz radius (au A)           
   ENMAX  =  400.000; ENMIN  =  300.000 eV                                      
   ICORE  =        2    local potential                                         
   LCOR   =        T    correct aug charges                                     
   LPAW   =        T    paw PP                                                  
   EAUG   =  605.392                                                            
   DEXC   =     .000                                                            
   RMAX   =    2.264    core radius for proj-oper                               
   RAUG   =    1.300    factor for augmentation sphere                          
   RDEP   =    1.550    radius for radial grids                                 
   QCUT   =   -5.520; QGAM   =   11.041    optimization parameters              
                                                                                
   Description                                                                  
     l     E      TYP  RCUT    TYP  RCUT                                        
     0   .000     23  1.200                                                     
     0  -.700     23  1.200                                                     
     1   .000     23  1.520                                                     
     1   .600     23  1.520                                                     
     2   .000      7  1.500                                                     
  local pseudopotential read in
  atomic valenz-charges read in
  non local Contribution for L=           0  read in
    real space projection operators read in
  non local Contribution for L=           0  read in
    real space projection operators read in
  non local Contribution for L=           1  read in
    real space projection operators read in
  non local Contribution for L=           1  read in
    real space projection operators read in
    PAW grid and wavefunctions read in
 
   number of l-projection  operators is LMAX  =           4
   number of lm-projection operators is LMMAX =           8
 
 Optimization of the real space projectors (new method)

 maximal supplied QI-value         = 16.25
 optimisation between [QCUT,QGAM] = [ 10.24, 20.48] = [ 29.35,117.42] Ry 
 Optimized for a Real-space Cutoff    1.38 Angstroem

   l    n(q)    QCUT    max X(q) W(low)/X(q) W(high)/X(q)  e(spline) 
   2      7    10.239     6.328    0.33E-04    0.68E-04    0.30E-07
   2      7    10.239     9.625    0.20E-03    0.23E-03    0.80E-07
   0      8    10.239     9.711    0.17E-04    0.17E-04    0.13E-07
   0      8    10.239    32.764    0.56E-04    0.14E-03    0.62E-07
   1      8    10.239     7.413    0.78E-04    0.28E-04    0.38E-07
   1      8    10.239    31.472    0.43E-03    0.30E-03    0.73E-07
 Optimization of the real space projectors (new method)

 maximal supplied QI-value         = 16.25
 optimisation between [QCUT,QGAM] = [ 10.24, 20.48] = [ 29.35,117.42] Ry 
 Optimized for a Real-space Cutoff    1.55 Angstroem

   l    n(q)    QCUT    max X(q) W(low)/X(q) W(high)/X(q)  e(spline) 
   1      9    10.239     3.725    0.12E-04    0.42E-05    0.32E-07
   1      9    10.239     4.899    0.39E-04    0.80E-04    0.16E-06
   2      9    10.239     4.046    0.87E-05    0.38E-04    0.55E-07
   2      9    10.239    59.627    0.23E-03    0.52E-03    0.25E-06
   0     10    10.239    23.955    0.21E-04    0.25E-05    0.94E-08
   0     10    10.239    65.137    0.37E-04    0.23E-05    0.66E-07
 Optimization of the real space projectors (new method)

 maximal supplied QI-value         = 24.76
 optimisation between [QCUT,QGAM] = [ 10.15, 20.30] = [ 28.85,115.39] Ry 
 Optimized for a Real-space Cutoff    1.30 Angstroem

   l    n(q)    QCUT    max X(q) W(low)/X(q) W(high)/X(q)  e(spline) 
   0      8    10.150     4.192    0.55E-04    0.58E-04    0.78E-07
   0      8    10.150     8.473    0.46E-03    0.68E-03    0.23E-06
   1      7    10.150     2.474    0.11E-03    0.93E-04    0.33E-07
   1      7    10.150     3.912    0.46E-03    0.50E-03    0.15E-06
 PAW_PBE Ga_d 06Sep2000                 :
 energy of atom  1       EATOM=-2149.0616
 kinetic energy error for atom=    0.0101 (will be added to EATOM!!)
 PAW_PBE Cr_pv 07Sep2000                :
 energy of atom  2       EATOM=-1647.5667
 kinetic energy error for atom=    0.0284 (will be added to EATOM!!)
 PAW_PBE O 08Apr2002                    :
 energy of atom  3       EATOM= -432.3788
 kinetic energy error for atom=    0.1156 (will be added to EATOM!!)
 
 
 POSCAR: Ga Cr  O                                
  positions in direct lattice
  velocities in cartesian coordinates
 exchange correlation table for  LEXCH =        8
   RHO(1)=    0.500       N(1)  =     2000
   RHO(2)=  100.500       N(2)  =     4000
 


--------------------------------------------------------------------------------------------------------


 ion  position               nearest neighbor table
   1  0.090  1.000  0.396- 140 1.82  99 1.83 108 1.83 106 1.87
   2  0.411  0.625  0.604-  85 1.83 157 1.83  72 1.83 121 1.86
   3  0.589  0.625  0.896-  86 1.83  71 1.83 158 1.83 136 1.86
   4  0.160  0.625  0.656-  78 1.93 149 1.94  80 1.95 121 2.01  75 2.07 154 2.08
   5  0.840  0.625  0.844-  77 1.93  79 1.94 150 1.94 136 2.01  76 2.08 153 2.08
   6  0.910  0.500  0.604-  90 1.83  78 1.83 118 1.83  76 1.86
   7  0.090  0.500  0.896-  77 1.83 117 1.83  68 1.83  75 1.86
   8  0.841  0.375  0.844- 117 1.93  79 1.93 119 1.94  65 2.02  76 2.07 116 2.08
   9  0.912  0.250  0.604- 131 1.83 118 1.83  97 1.83 116 1.86
  10  0.089  0.250  0.896- 117 1.83  96 1.83 132 1.84  93 1.86
  11  0.840  0.625  0.344-  89 1.93 138 1.94  90 1.94  81 2.01  88 2.08 141 2.08
  12  0.660  0.000  0.656- 155 1.93 114 1.94 102 1.95  95 2.01 160 2.06 133 2.07
  13  0.159  0.625  0.155-  70 1.93 137 1.93  68 1.94  82 2.01 142 2.08  87 2.10
  14  0.089  0.250  0.398- 120 1.82 129 1.83 108 1.83 127 1.90
  15  0.911  0.250  0.103- 119 1.83 130 1.84 109 1.84 128 1.86
  16  0.841  0.375  0.344-  90 1.93 131 1.94 129 1.94  92 2.02  88 2.07 128 2.08
  17  0.159  0.376  0.155- 130 1.92  68 1.92 132 1.93 122 2.04  87 2.06 127 2.12
  18  0.590  0.377  0.396- 135 1.81  83 1.82  92 1.84 123 1.89
  19  0.411  0.375  0.103-  91 1.82  69 1.82 124 1.83 122 1.89
  20  0.660  0.250  0.155- 126 1.93 105 1.93 124 1.94 128 2.00  92 2.08 100 2.08
  21  0.411  0.625  0.104-  73 1.82  69 1.83 145 1.83  82 1.86
  22  0.340  0.502  0.342-  83 1.92  85 1.92  87 1.99 125 2.01  82 2.04 122 2.08
  23  0.589  0.625  0.396-  74 1.82 146 1.83  83 1.84  81 1.86
  24  0.341  1.000  0.844- 115 1.93 156 1.93 113 1.94  94 2.01 159 2.07 134 2.08
  25  0.412  0.126  0.606- 114 1.82  84 1.82 134 1.85 104 1.86
  26  0.589  0.125  0.896- 105 1.83 115 1.83  67 1.83 133 1.86
  27  0.910  0.000  0.104-  98 1.82 139 1.83 109 1.83 107 1.86
  28  0.841  0.125  0.344- 110 1.93 131 1.94 108 1.94 100 2.02 107 2.07 128 2.08
  29  0.159  0.124  0.154- 109 1.92 111 1.92 132 1.93 101 2.04 106 2.06 127 2.12
  30  0.590  0.123  0.396- 102 1.81 103 1.82 100 1.84 123 1.89
  31  0.412  0.125  0.103- 113 1.82 112 1.82 124 1.83 101 1.89
  32  0.340  0.999  0.342- 103 1.92 144 1.92 106 1.99 104 2.02 147 2.04 101 2.08
  33  0.660  1.000  0.156- 143 1.93 105 1.93 112 1.94 107 2.01 148 2.07 100 2.08
  34  0.090  0.500  0.396-  89 1.82  80 1.83 129 1.83  87 1.87
  35  0.659  0.500  0.156-  86 1.93 126 1.93  69 1.93  88 2.01  81 2.07  92 2.08
  36  0.661  0.250  0.657-  84 1.93 135 1.94 102 1.94 116 1.99 133 2.07  65 2.07
  37  0.910  0.500  0.104-  79 1.82  70 1.83 130 1.83  88 1.86
  38  0.412  0.374  0.606-  72 1.82  84 1.82  66 1.85 125 1.86
  39  0.589  0.375  0.896- 126 1.83  71 1.83  67 1.83  65 1.86
  40  0.159  0.375  0.656- 118 1.93  80 1.94 120 1.94  66 2.01  75 2.06  93 2.08
  41  0.660  0.500  0.656-  74 1.93  72 1.94 135 1.95  76 2.01 136 2.06  65 2.06
  42  0.341  0.500  0.844-  71 1.93  73 1.93  91 1.94  75 2.01 121 2.07  66 2.08
  43  0.090  1.000  0.896- 152 1.83  96 1.83 111 1.83  94 1.86
  44  0.910  1.000  0.604- 110 1.83 151 1.83  97 1.83  95 1.86
  45  0.841  0.125  0.844-  96 1.93  98 1.93 119 1.94 133 2.02  95 2.07 116 2.08
  46  0.159  0.125  0.656-  97 1.93  99 1.94 120 1.94 134 2.01  94 2.06  93 2.08
  47  0.340  0.250  0.845-  67 1.94  91 1.94 113 1.94  93 2.00  66 2.08 134 2.08
  48  0.089  0.750  0.396- 149 1.83  89 1.83 140 1.83 142 1.87
  49  0.911  0.750  0.104- 150 1.83 139 1.84  70 1.84 141 1.87
  50  0.840  0.875  0.344- 140 1.93 138 1.94 110 1.94 148 2.01 107 2.08 141 2.08
  51  0.159  0.875  0.155- 139 1.93 137 1.93 111 1.94 147 2.01 142 2.08 106 2.10
  52  0.589  0.875  0.396- 155 1.82 146 1.83 103 1.84 148 1.86
  53  0.411  0.875  0.104- 156 1.82 145 1.83 112 1.83 147 1.86
  54  0.340  0.750  0.345- 146 1.93  85 1.95 144 1.95 142 2.00  82 2.09 147 2.09
  55  0.660  0.750  0.155- 145 1.93  86 1.94 143 1.94 141 2.00 148 2.09  81 2.09
  56  0.089  0.750  0.896- 137 1.83  77 1.83 152 1.83 154 1.86
  57  0.912  0.750  0.604- 138 1.83  78 1.83 151 1.83 153 1.86
  58  0.840  0.875  0.844- 152 1.93 150 1.94  98 1.94 160 2.01  95 2.08 153 2.08
  59  0.160  0.875  0.656- 151 1.93 149 1.94  99 1.95 159 2.01  94 2.07 154 2.08
  60  0.589  0.875  0.896- 143 1.83 158 1.83 115 1.83 160 1.86
  61  0.411  0.875  0.604- 144 1.83 157 1.83 114 1.83 159 1.86
  62  0.340  0.750  0.845- 158 1.93  73 1.94 156 1.94 154 2.01 159 2.08 121 2.08
  63  0.660  0.750  0.655- 157 1.94  74 1.94 155 1.94 153 2.00 136 2.08 160 2.08
  64  0.343  0.250  0.344- 123 1.85 104 1.87 125 1.87 127 1.96 122 2.03 101 2.03
  65  0.672  0.376  0.780-  39 1.86   8 2.02  41 2.06  36 2.07
  66  0.328  0.375  0.719-  38 1.85  40 2.01  42 2.08  47 2.08
  67  0.503  0.250  0.872-  39 1.83  26 1.83  47 1.94
  68  0.165  0.500  0.053-   7 1.83  17 1.92  13 1.94
  69  0.497  0.500  0.129-  19 1.82  21 1.83  35 1.93
  70  0.997  0.624  0.128-  37 1.83  49 1.84  13 1.93
  71  0.503  0.500  0.872-  39 1.83   3 1.83  42 1.93
  72  0.496  0.500  0.626-  38 1.82   2 1.83  41 1.94
  73  0.336  0.624  0.947-  21 1.82  42 1.93  62 1.94
  74  0.664  0.624  0.553-  23 1.82  41 1.93  63 1.94
  75  0.173  0.500  0.780-   7 1.86  42 2.01  40 2.06   4 2.07
  76  0.827  0.500  0.719-   6 1.86  41 2.01   8 2.07   5 2.08
  77  0.003  0.624  0.873-   7 1.83  56 1.83   5 1.93
  78  0.997  0.624  0.628-   6 1.83  57 1.83   4 1.93
  79  0.836  0.500  0.947-  37 1.82   8 1.93   5 1.94
  80  0.166  0.500  0.553-  34 1.83  40 1.94   4 1.95
  81  0.672  0.624  0.281-  23 1.86  11 2.01  35 2.07  55 2.09
  82  0.328  0.624  0.219-  21 1.86  13 2.01  22 2.04  54 2.09
  83  0.502  0.500  0.373-  18 1.82  23 1.84  22 1.92
  84  0.498  0.250  0.627-  25 1.82  38 1.82  36 1.93
  85  0.336  0.624  0.447-   2 1.83  22 1.92  54 1.95
  86  0.664  0.624  0.053-   3 1.83  35 1.93  55 1.94
  87  0.174  0.498  0.281-  34 1.87  22 1.99  17 2.06  13 2.10
  88  0.827  0.500  0.220-  37 1.86  35 2.01  16 2.07  11 2.08
  89  0.003  0.624  0.372-  34 1.82  48 1.83  11 1.93
  90  0.836  0.500  0.447-   6 1.83  16 1.93  11 1.94
  91  0.336  0.376  0.947-  19 1.82  42 1.94  47 1.94
  92  0.672  0.375  0.281-  18 1.84  16 2.02  20 2.08  35 2.08
  93  0.172  0.250  0.781-  10 1.86  47 2.00  40 2.08  46 2.08
  94  0.173  0.000  0.780-  43 1.86  24 2.01  46 2.06  59 2.07
  95  0.827  0.000  0.719-  44 1.86  12 2.01  45 2.07  58 2.08
  96  0.003  0.124  0.873-  43 1.83  10 1.83  45 1.93
  97  0.997  0.124  0.627-  44 1.83   9 1.83  46 1.93
  98  0.836  0.000  0.947-  27 1.82  45 1.93  58 1.94
  99  0.166  0.001  0.553-   1 1.83  46 1.94  59 1.95
 100  0.672  0.126  0.281-  30 1.84  28 2.02  20 2.08  33 2.08
 101  0.329  0.128  0.222-  31 1.89  64 2.03  29 2.04  32 2.08
 102  0.663  0.125  0.552-  30 1.81  36 1.94  12 1.95
 103  0.502  0.000  0.373-  30 1.82  52 1.84  32 1.92
 104  0.338  0.132  0.446-  25 1.86  64 1.87  32 2.02
 105  0.664  0.124  0.053-  26 1.83  33 1.93  20 1.93
 106  0.174  0.002  0.281-   1 1.87  32 1.99  29 2.06  51 2.10
 107  0.827  0.001  0.220-  27 1.86  33 2.01  28 2.07  50 2.08
 108  0.004  0.125  0.371-  14 1.83   1 1.83  28 1.94
 109  0.997  0.125  0.128-  27 1.83  15 1.84  29 1.92
 110  0.836  0.000  0.447-  44 1.83  28 1.93  50 1.94
 111  0.165  0.000  0.053-  43 1.83  29 1.92  51 1.94
 112  0.497  0.000  0.129-  31 1.82  53 1.83  33 1.94
 113  0.336  0.125  0.947-  31 1.82  24 1.94  47 1.94
 114  0.496  0.001  0.626-  25 1.82  61 1.83  12 1.94
 115  0.503  0.000  0.872-  26 1.83  60 1.83  24 1.93
 116  0.828  0.250  0.719-   9 1.86  36 1.99  45 2.08   8 2.08
 117  0.003  0.376  0.873-   7 1.83  10 1.83   8 1.93
 118  0.997  0.376  0.627-   6 1.83   9 1.83  40 1.93
 119  0.836  0.250  0.947-  15 1.83   8 1.94  45 1.94
 120  0.165  0.250  0.553-  14 1.82  46 1.94  40 1.94
 121  0.328  0.625  0.719-   2 1.86   4 2.01  42 2.07  62 2.08
 122  0.329  0.372  0.222-  19 1.89  64 2.03  17 2.04  22 2.08
 123  0.498  0.250  0.370-  64 1.85  18 1.89  30 1.89
 124  0.498  0.250  0.129-  19 1.83  31 1.83  20 1.94
 125  0.338  0.369  0.446-  38 1.86  64 1.87  22 2.01
 126  0.664  0.376  0.053-  39 1.83  35 1.93  20 1.93
 127  0.179  0.250  0.285-  14 1.90  64 1.96  17 2.12  29 2.12
 128  0.827  0.250  0.219-  15 1.86  20 2.00  16 2.08  28 2.08
 129  0.004  0.375  0.371-  14 1.83  34 1.83  16 1.94
 130  0.997  0.375  0.128-  37 1.83  15 1.84  17 1.92
 131  0.837  0.250  0.447-   9 1.83  16 1.94  28 1.94
 132  0.163  0.250  0.054-  10 1.84  29 1.93  17 1.93
 133  0.672  0.125  0.780-  26 1.86  45 2.02  12 2.07  36 2.07
 134  0.328  0.125  0.719-  25 1.85  46 2.01  24 2.08  47 2.08
 135  0.663  0.375  0.552-  18 1.81  36 1.94  41 1.95
 136  0.672  0.624  0.780-   3 1.86   5 2.01  41 2.06  63 2.08
 137  0.164  0.750  0.053-  56 1.83  51 1.93  13 1.93
 138  0.836  0.750  0.447-  57 1.83  50 1.94  11 1.94
 139  0.997  0.876  0.128-  27 1.83  49 1.84  51 1.93
 140  0.003  0.876  0.372-   1 1.82  48 1.83  50 1.93
 141  0.827  0.750  0.219-  49 1.87  55 2.00  50 2.08  11 2.08
 142  0.173  0.750  0.281-  48 1.87  54 2.00  51 2.08  13 2.08
 143  0.664  0.876  0.053-  60 1.83  33 1.93  55 1.94
 144  0.336  0.877  0.447-  61 1.83  32 1.92  54 1.95
 145  0.497  0.750  0.128-  53 1.83  21 1.83  55 1.93
 146  0.502  0.750  0.372-  52 1.83  23 1.83  54 1.93
 147  0.328  0.876  0.219-  53 1.86  51 2.01  32 2.04  54 2.09
 148  0.672  0.876  0.281-  52 1.86  50 2.01  33 2.07  55 2.09
 149  0.164  0.750  0.553-  48 1.83  59 1.94   4 1.94
 150  0.836  0.750  0.947-  49 1.83  58 1.94   5 1.94
 151  0.997  0.876  0.628-  44 1.83  57 1.83  59 1.93
 152  0.003  0.876  0.873-  43 1.83  56 1.83  58 1.93
 153  0.828  0.750  0.719-  57 1.86  63 2.00   5 2.08  58 2.08
 154  0.172  0.750  0.781-  56 1.86  62 2.01  59 2.08   4 2.08
 155  0.664  0.876  0.553-  52 1.82  12 1.93  63 1.94
 156  0.336  0.876  0.947-  53 1.82  24 1.93  62 1.94
 157  0.497  0.750  0.627-  61 1.83   2 1.83  63 1.94
 158  0.503  0.750  0.872-  60 1.83   3 1.83  62 1.93
 159  0.328  0.876  0.719-  61 1.86  59 2.01  24 2.07  62 2.08
 160  0.672  0.876  0.780-  60 1.86  58 2.01  12 2.06  63 2.08
 
  LATTYP: Found a simple monoclinic cell.
 ALAT       =    14.6889751464
 B/A-ratio  =     0.8259161174
 C/A-ratio  =     1.5972413798
 COS(beta)  =    -0.9171837574
  
  Lattice vectors:
  
 A1 = ( -11.8609006218,   0.0000000000,  -8.6651617002)
 A2 = (   0.0000000000, -12.1318613217,   0.0000000000)
 A3 = (  11.8609006218,   0.0000000000,  20.2429474736)


Analysis of symmetry for initial positions (statically):
=====================================================================
 Subroutine PRICEL returns:
 Original cell was already a primitive cell.
 

 Routine SETGRP: Setting up the symmetry group for a 
 simple monoclinic supercell.


 Subroutine GETGRP returns: Found  1 space group operations
 (whereof  1 operations were pure point group operations)
 out of a pool of  4 trial point group operations.


The static configuration has the point symmetry C_1 .


Analysis of symmetry for dynamics (positions and initial velocities):
=====================================================================
 Subroutine PRICEL returns:
 Original cell was already a primitive cell.
 

 Routine SETGRP: Setting up the symmetry group for a 
 simple monoclinic supercell.


 Subroutine GETGRP returns: Found  1 space group operations
 (whereof  1 operations were pure point group operations)
 out of a pool of  4 trial point group operations.


The dynamic configuration has the point symmetry C_1 .


Analysis of structural, dynamic, and magnetic symmetry:
=====================================================================
 Subroutine PRICEL returns:
 Original cell was already a primitive cell.
 

 Routine SETGRP: Setting up the symmetry group for a 
 simple monoclinic supercell.


 Subroutine GETGRP returns: Found  1 space group operations
 (whereof  1 operations were pure point group operations)
 out of a pool of  4 trial point group operations.


The magnetic configuration has the point symmetry C_1 .


 Subroutine INISYM returns: Found  1 space group operations
 (whereof  1 operations are pure point group operations),
 and found     1 'primitive' translations

 
 
 KPOINTS: KPOINTS created by Atomic Simulation Env
  k-points in reciprocal lattice
Space group operators:
 irot       det(A)        alpha          n_x          n_y          n_z        tau_x        tau_y        tau_z
    1     1.000000     0.000000     1.000000     0.000000     0.000000     0.000000     0.000000     0.000000

 ----------------------------------------------------------------------------- 
|                                                                             |
|           W    W    AA    RRRRR   N    N  II  N    N   GGGG   !!!           |
|           W    W   A  A   R    R  NN   N  II  NN   N  G    G  !!!           |
|           W    W  A    A  R    R  N N  N  II  N N  N  G       !!!           |
|           W WW W  AAAAAA  RRRRR   N  N N  II  N  N N  G  GGG   !            |
|           WW  WW  A    A  R   R   N   NN  II  N   NN  G    G                |
|           W    W  A    A  R    R  N    N  II  N    N   GGGG   !!!           |
|                                                                             |
|      Your generating k-point grid is not commensurate to the symmetry       |
|      of the lattice.  This can cause   slow convergence with respect        |
|      to k-points for HF type calculations                                   |
|      suggested SOLUTIONS:                                                   |
|       ) if not already the case, use automatic k-point generation           |
|       ) shift your grid to Gamma (G) (e.g. required for hex or fcc lattice) |
|                                                                             |
 ----------------------------------------------------------------------------- 

 
 Subroutine IBZKPT_HF returns following result:
 ==============================================
 
 Found      2 k-points in 1st BZ
 the following      2 k-points will be used (e.g. in the exchange kernel)
 Following reciprocal coordinates:   # in IRBZ
  0.250000  0.250000  0.250000    0.50000000   1 t-inv F
 -0.250000 -0.250000 -0.250000    0.50000000   1 t-inv T


--------------------------------------------------------------------------------------------------------




 Dimension of arrays:
   k-points           NKPTS =      1   k-points in BZ     NKDIM =      2   number of bands    NBANDS=    864
   number of dos      NEDOS =    301   number of ions     NIONS =    160
   non local maximal  LDIM  =      6   non local SUM 2l+1 LMDIM =     18
   total plane-waves  NPLWV = 216000
   max r-space proj   IRMAX =   2087   max aug-charges    IRDMAX=   5112
   dimension x,y,z NGX =    60 NGY =   60 NGZ =   60
   dimension x,y,z NGXF=   120 NGYF=  120 NGZF=  120
   support grid    NGXF=   120 NGYF=  120 NGZF=  120
   ions per type =              63   1  96
   NGX,Y,Z   is equivalent  to a cutoff of   8.17,  8.22,  8.62 a.u.
   NGXF,Y,Z  is equivalent  to a cutoff of  16.33, 16.44, 17.23 a.u.

 SYSTEM =  unknown system                          
 POSCAR =  Ga Cr  O                                

 Startparameter for this run:
   NWRITE =      2    write-flag & timer
   PREC   = normal    normal or accurate (medium, high low for compatibility)
   ISTART =      1    job   : 0-new  1-cont  2-samecut
   ICHARG =      0    charge: 1-file 2-atom 10-const
   ISPIN  =      2    spin polarized calculation?
   LNONCOLLINEAR =      F non collinear calculations
   LSORBIT =      F    spin-orbit coupling
   INIWAV =      1    electr: 0-lowe 1-rand  2-diag
   LASPH  =      T    aspherical Exc in radial PAW
   METAGGA=      F    non-selfconsistent MetaGGA calc.

 Electronic Relaxation 1
   ENCUT  =  400.0 eV  29.40 Ry    5.42 a.u.  19.92 19.78 18.88*2*pi/ulx,y,z
   ENINI  =  400.0     initial cutoff
   ENAUG  =  605.4 eV  augmentation charge cutoff
   NELM   =     40;   NELMIN=  2; NELMDL=  0     # of ELM steps 
   EDIFF  = 0.1E-03   stopping-criterion for ELM
   LREAL  =      T    real-space projection
   NLSPLINE    = F    spline interpolate recip. space projectors
   LCOMPAT=      F    compatible to vasp.4.4
   GGA_COMPAT  = T    GGA compatible to vasp.4.4-vasp.4.6
   LMAXPAW     = -100 max onsite density
   LMAXMIX     =    2 max onsite mixed and CHGCAR
   VOSKOWN=      0    Vosko Wilk Nusair interpolation
   ROPT   =   -0.00050  -0.00050  -0.00050
 Ionic relaxation
   EDIFFG = 0.1E-02   stopping-criterion for IOM
   NSW    =     45    number of steps for IOM
   NBLOCK =      1;   KBLOCK =     45    inner block; outer block 
   IBRION =      2    ionic relax: 0-MD 1-quasi-New 2-CG
   NFREE  =      1    steps in history (QN), initial steepest desc. (CG)
   ISIF   =      0    stress and relaxation
   IWAVPR =     11    prediction:  0-non 1-charg 2-wave 3-comb
   ISYM   =      3    0-nonsym 1-usesym 2-fastsym
   LCORR  =      T    Harris-Foulkes like correction to forces

   POTIM  = 0.3500    time-step for ionic-motion
   TEIN   =    0.0    initial temperature
   TEBEG  =    0.0;   TEEND  =   0.0 temperature during run
   SMASS  =  -3.00    Nose mass-parameter (am)
   estimated Nose-frequenzy (Omega)   =  0.10E-29 period in steps =****** mass=  -0.341E-26a.u.
   SCALEE = 1.0000    scale energy and forces
   NPACO  =    256;   APACO  = 16.0  distance and # of slots for P.C.
   PSTRESS=    0.0 pullay stress

  Mass of Ions in am
   POMASS =  69.72 52.00 16.00
  Ionic Valenz
   ZVAL   =  13.00 12.00  6.00
  Atomic Wigner-Seitz radii
   RWIGS  =  -1.00 -1.00 -1.00
  virtual crystal weights 
   VCA    =   1.00  1.00  1.00
   NELECT =    1406.0000    total number of electrons
   NUPDOWN=       2.0000    fix difference up-down

 DOS related values:
   EMIN   =  10.00;   EMAX   =-10.00  energy-range for DOS
   EFERMI =   0.00
   ISMEAR =     0;   SIGMA  =   0.05  broadening in eV -4-tet -1-fermi 0-gaus

 Electronic relaxation 2 (details)
   IALGO  =     58    algorithm
   LDIAG  =      T    sub-space diagonalisation (order eigenvalues)
   LSUBROT=      F    optimize rotation matrix (better conditioning)
   TURBO    =      0    0=normal 1=particle mesh
   IRESTART =      0    0=no restart 2=restart with 2 vectors
   NREBOOT  =      0    no. of reboots
   NMIN     =      0    reboot dimension
   EREF     =   0.00    reference energy to select bands
   IMIX   =      4    mixing-type and parameters
     AMIX     =   0.40;   BMIX     =  1.00
     AMIX_MAG =   1.60;   BMIX_MAG =  1.00
     AMIN     =   0.10
     WC   =   100.;   INIMIX=   1;  MIXPRE=   1;  MAXMIX= -45

 Intra band minimization:
   WEIMIN = 0.0010     energy-eigenvalue tresh-hold
   EBREAK =  0.29E-07  absolut break condition
   DEPER  =   0.30     relativ break condition  

   TIME   =   0.40     timestep for ELM

  volume/ion in A,a.u.               =      10.41        70.27
  Fermi-wavevector in a.u.,A,eV,Ry     =   1.547081  2.923559 32.564997  2.393460
  Thomas-Fermi vector in A             =   2.652225
 
 Write flags
   LWAVE        =      T    write WAVECAR
   LDOWNSAMPLE  =      F    k-point downsampling of WAVECAR
   LCHARG       =      F    write CHGCAR
   LVTOT        =      F    write LOCPOT, total local potential
   LVHAR        =      T    write LOCPOT, Hartree potential only
   LELF         =      F    write electronic localiz. function (ELF)
   LORBIT       =     10    0 simple, 1 ext, 2 COOP (PROOUT), +10 PAW based schemes


 Dipole corrections
   LMONO  =      F    monopole corrections only (constant potential shift)
   LDIPOL =      F    correct potential (dipole corrections)
   IDIPOL =      0    1-x, 2-y, 3-z, 4-all directions 
   EPSILON=  1.0000000 bulk dielectric constant

 Exchange correlation treatment:
   GGA     =    --    GGA type
   LEXCH   =     8    internal setting for exchange type
   VOSKOWN=      0    Vosko Wilk Nusair interpolation
   EXXOEP  =     0    0=HF, 1=EXX-LHF (local Hartree Fock) 2=EXX OEP
   LHFCALC =     T    Hartree Fock is set to
   LSYMGRAD=     F    symmetrize gradient (conserves proper symmetry)
   PRECFOCK=fast      Normal, Fast or Accurate (Low or Medium for compatibility)
   LRHFCALC=     F    long range Hartree Fock
   LRSCOR  =     F    long range correlation only (use DFT for short range part)
   LTHOMAS =     F    Thomas Fermi screening in HF
   LMODELHF=     F    short range full HF, long range fraction AEXX
   ENCUT4O =  -1.0   cutoff for four orbital integrals eV
   LMAXFOCK=     4    L truncation for augmentation on plane wave grid
   LMAXFOCKAE=  -1    L truncation for all-electron charge restoration on plane wave grid
   NMAXFOCKAE=   1    number of basis functions for all-electron charge restoration
   LFOCKAEDFT=     F  apply the AE augmentation even for DFT
   NKREDX  =     1    reduce k-point grid by
   NKREDY  =     1    reduce k-point grid by
   NKREDZ  =     1    reduce k-point grid by
   SHIFTRED=     F    shift reduced grid of Gamma
   HFKIDENT=     F    idential grid for each k-point
   ODDONLY =     F    use only odd q-grid points
   EVENONLY=     F    use only even q-grid points
   HFALPHA =   -1.0000 decay constant for conv. correction
   MCALPHA =    0.0000 extent of test-charge in conv. correction in multipole expansion
   AEXX    =    0.3200 exact exchange contribution
   HFSCREEN=    0.2000 screening length (either q_TF or 0.3 A-1)
   HFSCREENC=   0.2000 screening length for correlation (either q_TF or 0.3 A-1)
   HFRCUT  =    0.0000 spherical cutoff for potential kernel
   ALDAX   =    0.6800 LDA exchange part
   AGGAX   =    0.6800 GGA exchange part
   ALDAC   =    1.0000 LDA correlation
   AGGAC   =    1.0000 GGA correlation
   ENCUTFOCK=  -1.0 apply spherical cutoff to Coloumb kernel
   NBANDSGWLOW=     1    first orbital included in HF term
   NBLOCK_FOCK=    64    blocking factor in FOCK_ACC
 Linear response parameters
   LEPSILON=     F    determine dielectric tensor
   LRPA    =     F    only Hartree local field effects (RPA)
   LNABLA  =     F    use nabla operator in PAW spheres
   LVEL    =     F    velocity operator in full k-point grid
   LINTERFAST=   F  fast interpolation
   KINTER  =     0    interpolate to denser k-point grid
   CSHIFT  =0.1000    complex shift for real part using Kramers Kronig
   OMEGAMAX=  -1.0    maximum frequency
   DEG_THRESHOLD= 0.2000000E-02 threshold for treating states as degnerate
   RTIME   =   -0.100 relaxation time in fs
  (WPLASMAI=    0.000 imaginary part of plasma frequency in eV, 0.658/RTIME)
   DFIELD  = 0.0000000 0.0000000 0.0000000 field for delta impulse in time
 
 Orbital magnetization related:
   ORBITALMAG=     F  switch on orbital magnetization
   LCHIMAG   =     F  perturbation theory with respect to B field
   DQ        =  0.001000  dq finite difference perturbation B field
   LLRAUG    =     F  two centre corrections for induced B field



--------------------------------------------------------------------------------------------------------


 conjugate gradient relaxation of ions
 charge density and potential will be updated during run
 spin polarized calculation
 Conjugate gradient for all bands (Freysoldt, et al. PRB 79, 241103 (2009))
 preconditioned conjugated gradient                                        
 perform sub-space diagonalisation
    before iterative eigenvector-optimisation
 modified Broyden-mixing scheme, WC =      100.0
 initial mixing is a Kerker type mixing with AMIX =  0.4000 and BMIX =      1.0000
 Hartree-type preconditioning will be used
 using additional bands          161
 real space projection scheme for non local part
 use partial core corrections
 no Harris-corrections to forces 
 use gradient corrections 
 use of overlap-Matrix (Vanderbilt PP)
 Gauss-broadening in eV      SIGMA  =   0.05


--------------------------------------------------------------------------------------------------------


  energy-cutoff  :      400.00
  volume of cell :     1665.98
      direct lattice vectors                 reciprocal lattice vectors
    11.860900622  0.000000000 -2.912624073     0.084310630  0.000000000  0.000000000
     0.000000000 12.131861322  0.000000000     0.000000000  0.082427583  0.000000000
     0.000000000  0.000000000 11.577785773     0.021210029  0.000000000  0.086372301

  length of vectors
    12.213285494 12.131861322 11.577785773     0.084310630  0.082427583  0.088938404


 
 old parameters found on file WAVECAR:
  energy-cutoff  :      400.00
  volume of cell :     1665.98
      direct lattice vectors                 reciprocal lattice vectors
    11.860900622  0.000000000 -2.912624073     0.084310630  0.000000000  0.000000000
     0.000000000 12.131861322  0.000000000     0.000000000  0.082427583  0.000000000
     0.000000000  0.000000000 11.577785773     0.021210029  0.000000000  0.086372301

  length of vectors

 
 k-points in units of 2pi/SCALE and weight: KPOINTS created by Atomic Simulation Env
   0.02638016  0.02060690  0.02159308       1.000
 
 k-points in reciprocal lattice and weights: KPOINTS created by Atomic Simulation Env
   0.25000000  0.25000000  0.25000000       1.000
 
 position of ions in fractional coordinates (direct lattice) 
   0.08964910  0.99995620  0.39631976
   0.41071686  0.62508526  0.60428455
   0.58918261  0.62512643  0.89589655
   0.15975500  0.62491859  0.65564094
   0.84046827  0.62492343  0.84424098
   0.91019537  0.50012917  0.60372862
   0.09009807  0.50020060  0.89597224
   0.84078303  0.37548557  0.84414841
   0.91153164  0.25006779  0.60388353
   0.08873329  0.25006435  0.89620124
   0.84026400  0.62492511  0.34434584
   0.65953367  0.00000227  0.65633437
   0.15944938  0.62538669  0.15513664
   0.08900795  0.25010604  0.39750126
   0.91073834  0.25009758  0.10346962
   0.84075173  0.37521700  0.34409082
   0.15856237  0.37622370  0.15450338
   0.59037187  0.37694328  0.39607120
   0.41145500  0.37511249  0.10319457
   0.66020760  0.25015328  0.15485970
   0.41094888  0.62520135  0.10356360
   0.34029183  0.50156828  0.34244650
   0.58900196  0.62527050  0.39605050
   0.34056245  0.99972301  0.84403615
   0.41177693  0.12582683  0.60648255
   0.58935468  0.12497550  0.89602573
   0.90989947  0.00014776  0.10376242
   0.84075250  0.12500327  0.34411553
   0.15854372  0.12394607  0.15448658
   0.59034622  0.12336300  0.39601623
   0.41156067  0.12519477  0.10319739
   0.34026919  0.99850690  0.34219090
   0.65951176  0.99981065  0.15576003
   0.08968312  0.50021318  0.39629763
   0.65949330  0.50043767  0.15575896
   0.66080706  0.25009453  0.65674739
   0.90992673  0.50000808  0.10378032
   0.41169452  0.37445426  0.60631374
   0.58942344  0.37537052  0.89602606
   0.15929204  0.37545397  0.65626680
   0.65953724  0.50016004  0.65634001
   0.34058517  0.50049788  0.84402742
   0.09007673  0.99990621  0.89598414
   0.91016512  0.99998261  0.60372228
   0.84077269  0.12469163  0.84416881
   0.15924978  0.12471043  0.65626824
   0.34011662  0.25014459  0.84481728
   0.08853851  0.75008508  0.39615225
   0.91145376  0.75007202  0.10399145
   0.84027391  0.87527850  0.34432456
   0.15938169  0.87473740  0.15513008
   0.58906300  0.87501900  0.39607939
   0.41089531  0.87509445  0.10352417
   0.34006226  0.75008449  0.34511795
   0.65981412  0.75014265  0.15509079
   0.08862572  0.75005459  0.89561995
   0.91165573  0.75005630  0.60400388
   0.84046984  0.87523817  0.84421683
   0.15972960  0.87523973  0.65566393
   0.58925688  0.87522445  0.89590824
   0.41061779  0.87515487  0.60424813
   0.34023857  0.75012698  0.84464382
   0.65990742  0.75008761  0.65529645
   0.34275000  0.25000473  0.34364164
   0.67219514  0.37551589  0.78024433
   0.32758111  0.37515735  0.71936672
   0.50274505  0.25021155  0.87222262
   0.16534572  0.49989855  0.05306955
   0.49691350  0.49997502  0.12869245
   0.99748614  0.62417164  0.12804896
   0.50275356  0.50005088  0.87183056
   0.49638906  0.49953251  0.62612658
   0.33584073  0.62446106  0.94722451
   0.66367766  0.62407606  0.55261517
   0.17264222  0.49991170  0.78033985
   0.82744849  0.49971344  0.71923811
   0.00298087  0.62428963  0.87251166
   0.99743218  0.62426367  0.62751590
   0.83565990  0.49994605  0.94712973
   0.16557668  0.49957678  0.55251318
   0.67203968  0.62431143  0.28078915
   0.32756819  0.62413094  0.21909397
   0.50185340  0.49976051  0.37254370
   0.49806473  0.25014903  0.62701999
   0.33583389  0.62357255  0.44723405
   0.66383442  0.62441888  0.05277225
   0.17381780  0.49849074  0.28118290
   0.82732820  0.49961710  0.21950996
   0.00285315  0.62431976  0.37187615
   0.83561327  0.49974425  0.44692344
   0.33567295  0.37571611  0.94740393
   0.67175376  0.37475829  0.28090854
   0.17249463  0.25010581  0.78123036
   0.17261541  0.00027287  0.78034516
   0.82744064  0.00040122  0.71924017
   0.00323641  0.12436859  0.87282978
   0.99726135  0.12438958  0.62744472
   0.83563480  0.00021934  0.94711937
   0.16560414  0.00057025  0.55251500
   0.67174736  0.12550551  0.28090203
   0.32925193  0.12779239  0.22181101
   0.66284906  0.12530406  0.55215992
   0.50182775  0.00049837  0.37263265
   0.33830149  0.13214516  0.44584341
   0.66367193  0.12446034  0.05293776
   0.17383205  0.00175226  0.28125022
   0.82733156  0.00055243  0.21951809
   0.00353627  0.12487010  0.37129179
   0.99740557  0.12474847  0.12848444
   0.83560566  0.00044191  0.44691857
   0.16529497  0.00021774  0.05309809
   0.49693228  0.00026204  0.12872082
   0.33573568  0.12455173  0.94741630
   0.49633608  0.00068260  0.62604885
   0.50274674  0.00023003  0.87183475
   0.82783285  0.25006270  0.71899521
   0.00324049  0.37575367  0.87280721
   0.99728614  0.37572235  0.62744658
   0.83620711  0.25012518  0.94678591
   0.16458809  0.25005977  0.55338640
   0.32771428  0.62455366  0.71935524
   0.32921229  0.37222203  0.22183265
   0.49828340  0.25019888  0.37008338
   0.49752022  0.25020431  0.12928046
   0.33823755  0.36852577  0.44587730
   0.66372537  0.37581503  0.05293733
   0.17877383  0.25011799  0.28456232
   0.82741043  0.25011409  0.21890330
   0.00353677  0.37532042  0.37128418
   0.99743314  0.37541477  0.12848330
   0.83680423  0.25013289  0.44688919
   0.16347403  0.25008113  0.05408982
   0.67216227  0.12470156  0.78024095
   0.32756468  0.12498052  0.71937568
   0.66291266  0.37487553  0.55218662
   0.67215162  0.62440914  0.78035373
   0.16384108  0.75008681  0.05267225
   0.83643301  0.75013678  0.44708490
   0.99745854  0.87598752  0.12806519
   0.00285626  0.87585506  0.37189437
   0.82747450  0.75010906  0.21905141
   0.17280936  0.75014189  0.28108848
   0.66391939  0.87585341  0.05277160
   0.33579280  0.87669942  0.44719167
   0.49730464  0.75019792  0.12794350
   0.50222345  0.75018274  0.37232640
   0.32754382  0.87604916  0.21907056
   0.67204410  0.87598209  0.28077686
   0.16398714  0.75010504  0.55271501
   0.83649303  0.75011781  0.94716885
   0.99741553  0.87586881  0.62752124
   0.00297901  0.87582220  0.87251938
   0.82763790  0.75005760  0.71897120
   0.17249854  0.75011359  0.78079352
   0.66372455  0.87609913  0.55262547
   0.33576106  0.87580509  0.94721713
   0.49708028  0.75017334  0.62719352
   0.50274322  0.75022343  0.87230252
   0.32769683  0.87563366  0.71937068
   0.67215497  0.87582583  0.78032336
 
 position of ions in cartesian coordinates  (Angst):
   1.06331911 12.13132997  4.32739120
   4.87147184  7.58344765  5.80001327
   6.98823642  7.58394719  8.65643088
   1.89483820  7.58142567  7.12556413
   9.96871058  7.58148439  7.32647308
  10.79573689  6.06749768  4.33878365
   1.06864425  6.06836433 10.11095288
   9.97244395  4.55533884  7.32448451
  10.81158617  3.03378774  4.33668519
   1.05245677  3.03374599 10.11757926
   9.96628780  7.58150475  1.53938921
   7.82266330  0.00002759  5.67792509
   1.89121323  7.58710454  1.33172271
   1.05571448  3.03425178  4.34293772
  10.80217690  3.03414910 -1.45468929
   9.97207273  4.55208065  1.53501605
   1.88069247  4.56429377  1.32697447
   7.00234204  4.57302354  2.86609619
   4.88022687  4.55081274 -0.00364908
   7.83065673  3.03482491 -0.13000414
   4.87422386  7.58485608  0.00209752
   4.03616757  6.08495685  2.97363004
   6.98609375  7.58569499  2.86984660
   4.03937736 12.12850086  8.78013938
   4.88404521  1.52651369  5.82237368
   6.99027726  1.51618544  8.65742536
  10.79222715  0.00179260 -1.44885597
   9.97208179  1.51652238  1.53529991
   1.88047133  1.50369659  1.32683431
   7.00203783  1.49662278  2.86553441
   4.88148020  1.51884558 -0.00392423
   4.03589911 12.11374721  2.97073665
   7.82240339 12.12956412 -0.11755353
   1.06372254  6.06851693  4.32703582
   7.82218449  6.07124046 -0.11751214
   7.83776690  3.03411210  5.67899804
  10.79255047  6.06602867 -1.44872815
   4.88306778  4.54282712  5.82065925
   6.99109282  4.55394308  8.65722882
   1.88934711  4.55495549  7.13415857
   7.82270567  6.06787227  5.67798002
   4.03964689  6.07197091  8.77997212
   1.06839111 12.13072345 10.11115282
  10.79537806 12.13165031  4.33879835
   9.97232136  1.51274160  7.32475087
   1.88884579  1.51296968  7.13429833
   4.03408946  3.03471944  8.79048159
   1.05014647  9.09992812  4.32868649
  10.81066249  9.09976968 -1.45073140
   9.96640531 10.61875735  1.53911393
   1.89041037 10.61219289  1.33184393
   6.98681771 10.61560913  2.87000320
   4.87358840 10.61652449  0.00179712
   4.03344464  9.09992099  3.00522820
   7.82598975  9.10062659 -0.12618258
   1.05118081  9.09955832 10.11116250
  10.81305800  9.09957906  4.33771710
   9.96872926 10.61826808  7.32618894
   1.89453686 10.61828707  7.12590423
   6.98911735 10.61810160  8.65634986
   4.87029675 10.61725746  5.79988013
   4.03553581  9.10043652  8.78811812
   7.82709635  9.09995887  5.66481964
   4.06532369  3.03302275  2.98030735
   7.97283974  4.55570670  7.07565000
   3.88540700  4.55135694  7.37455309
   5.96300908  3.03553187  8.63409926
   1.96114915  6.06469985  0.13283793
   5.89384169  6.06562758  0.04265142
  11.83108393  7.57236374 -1.42277866
   5.96310998  6.06654792  8.62953534
   5.88762137  6.06025911  5.80336469
   3.98337348  7.57587502  9.98858472
   7.87181474  7.57120417  4.46501655
   2.04769225  6.06485943  8.53176576
   9.81428429  6.06245421  5.91713834
   0.03535586  7.57379519 10.09307095
  11.83044394  7.57348024  4.36009967
   9.91167907  6.06527609  8.53170194
   1.96388855  6.06079617  5.91461661
   7.97099586  7.57405972  1.29351773
   3.88525370  7.57187002  1.58254008
   5.95243326  6.06302525  2.85152088
   5.90749626  3.03477336  5.80882775
   3.98329244  7.56509572  4.19982209
   7.87367413  7.57536324 -1.32251428
   2.06163560  6.04762055  2.74920946
   9.81285759  6.06128532  0.13174330
   0.03384089  7.57416077  4.29719222
   9.91112601  6.06282798  2.74055655
   3.98138348  4.55813576  9.99115069
   7.96760455  4.54651555  1.29573278
   2.04594165  3.03424901  8.54250573
   2.04737418  0.00331037  8.53190526
   9.81419121  0.00486758  5.91718503
   0.03838676  1.50882243 10.09600981
  11.82841781  1.50907717  4.35977318
   9.91138136  0.00266097  8.53165507
   1.96421419  0.00691821  5.91455777
   7.96752864  1.52261550  1.29567601
   3.90522436  1.55035956  1.60909327
   7.86198678  1.52017143  4.46215918
   5.95212909  0.00604618  2.85262544
   4.01256041  1.60316670  4.17653436
   7.87174681  1.50993562 -1.32012480
   2.06180468  0.02125820  2.74994739
   9.81289747  0.00670198  0.13182756
   0.04194341  1.51490669  4.28843692
  11.83012833  1.51343118 -1.41750209
   9.91103568  0.00536119  2.74052228
   1.96054721  0.00264155  0.13331622
   5.89406440  0.00317904  0.04292513
   3.98212751  1.51104434  9.99111118
   5.88699289  0.00828116  5.80261905
   5.96302914  0.00279072  8.62960372
   9.81884319  3.03372600  5.91320657
   0.03843515  4.55859139 10.09573662
  11.82871180  4.55821150  4.35972249
   9.91816939  3.03448399  8.52612751
   1.95216301  3.03369051  5.92760600
   3.88698656  7.57699844  7.37403237
   3.90475429  4.51574601  1.60945924
   5.91008987  3.03537814  2.83343390
   5.90103786  3.03544401  0.04769207
   4.01180198  4.47090351  4.17711299
   7.87238069  4.55933582 -1.32028543
   2.12041858  3.03439682  2.77390061
   9.81383286  3.03434943  0.12447997
   0.04194933  4.55333525  4.28834743
  11.83045533  4.55447989 -1.41759564
   9.92525181  3.03457748  2.73669122
   1.93894924  3.03394959  0.15010193
   7.97244987  1.51286201  7.07570657
   3.88521217  1.51624635  7.37470471
   7.86274121  4.54793789  4.46228302
   7.97232354  7.57524506  7.07704329
   1.94330277  9.09994911  0.13262060
   9.92084876  9.10055539  2.74003827
  11.83075668 10.62735911 -1.42251044
   0.03387778 10.62575208  4.29739413
   9.81459283  9.10021907  0.12600813
   2.04967467  9.10061733  2.75105346
   7.87468196 10.62573205 -1.32276929
   3.98280506 10.63599582  4.19945119
   5.89848091  9.10129711  0.03284096
   5.95682239  9.10111296  2.84792721
   3.88496467 10.62810697  1.58233996
   7.97104832 10.62729324  1.29336245
   1.94503521  9.10017035  5.92158303
   9.92156074  9.10032527  8.52972830
  11.83024644 10.62591894  4.36020996
   0.03533373 10.62535348 10.09316571
   9.81653086  9.09959476  5.91349648
   2.04598803  9.10027411  8.53743672
   7.87237091 10.62871315  4.46499919
   3.98242858 10.62514585  9.98873131
   5.89581985  9.10099893  5.81370424
   5.96298737  9.10160663  8.63502974
   3.88677950 10.62306619  7.37426194
   7.97236328 10.62539751  7.07668195
 


--------------------------------------------------------------------------------------------------------


 k-point  1 :   0.2500 0.2500 0.2500  plane waves:   30269

 maximum and minimum number of plane-waves per node :     30269    30269

 maximum number of plane-waves:     30269
 maximum index in each direction: 
   IXMAX=   19   IYMAX=   19   IZMAX=   18
   IXMIN=  -20   IYMIN=  -20   IZMIN=  -19


 serial   3D FFT for wavefunctions
 parallel 3D FFT for charge:
    minimum data exchange during FFTs selected (reduces bandwidth)


 FFT grid for exact exchange (Hartree Fock) 
  NGX = 42; NGY = 42; NGZ = 40

 
 Radii for the augmentation spheres in the non-local exchange
 for species   1 augmentation radius   1.277 (default was   1.031)
       energy cutoff for augmentation   1600.0
 for species   2 augmentation radius   1.295 (default was   1.002)
       energy cutoff for augmentation   1600.0
 for species   3 augmentation radius   0.820 (default was   0.722)
       energy cutoff for augmentation   1600.0
 Maximum index for augmentation-charges in exchange          382
  SETUP_FOCK is finished

 total amount of memory used by VASP MPI-rank0    99298. kBytes
=======================================================================

   base      :      30000. kBytes
   nonlr-proj:      34674. kBytes
   fftplans  :       1403. kBytes
   grid      :      18679. kBytes
   one-center:       4976. kBytes
   HF        :        194. kBytes
   wavefun   :       9372. kBytes
 
     INWAV:  cpu time    2.2502: real time    2.5297
 Broyden mixing: mesh for mixing (old mesh)
   NGX = 39   NGY = 39   NGZ = 37
  (NGX  =120   NGY  =120   NGZ  =120)
  gives a total of  56277 points

 charge density for first step will be calculated from the start-wavefunctions


--------------------------------------------------------------------------------------------------------


 Maximum index for non-local projection operator         1980
 Maximum index for augmentation-charges          168 (set IRDMAX)


--------------------------------------------------------------------------------------------------------


 initial charge from wavefunction
 First call to EWALD:  gamma=   0.150
 Maximum number of real-space cells 3x 3x 3
 Maximum number of reciprocal cells 3x 3x 3

    FEWALD:  cpu time    0.0051: real time    0.0053


--------------------------------------- Iteration      1(   1)  ---------------------------------------


    POTLOK:  cpu time    0.1135: real time    0.1142
    SETDIJ:  cpu time    1.7729: real time    1.7731
    TRIAL :  cpu time   79.3911: real time   79.5445
    CORREC:  cpu time   79.6591: real time   79.8397
    CHARGE:  cpu time    0.1359: real time    0.1359
    --------------------------------------------
      LOOP:  cpu time  161.0897: real time  161.4491

 eigenvalue-minimisations  :     0
 total energy-change (2. order) :-0.1524507E+04  (-0.1330276E-02)
 number of electron    1406.0004385 magnetization       1.9999993
 augmentation part      612.0384230 magnetization       1.4016706

 Free energy of the ion-electron system (eV)
  ---------------------------------------------------
  alpha Z        PSCENC =      9560.78109732
  Ewald energy   TEWEN  =   -118750.34382708
  -Hartree energ DENC   =    -44779.69920263
  -exchange      EXHF   =      5281.58645231
  -V(xc)+E(xc)   XCENC  =      4759.15638447
  PAW double counting   =    127540.00865872  -149132.05406620
  entropy T*S    EENTRO =        -0.00000000
  eigenvalues    EBANDS =    -13822.72918383
  atomic energy  EATOM  =    177818.78644850
  ---------------------------------------------------
  free energy    TOTEN  =     -1524.50723842 eV

  energy without entropy =    -1524.50723842  energy(sigma->0) =    -1524.50723842
  exchange ACFDT corr.  =         0.00000000  see jH, gK, PRB 81, 115126


--------------------------------------------------------------------------------------------------------




--------------------------------------- Iteration      1(   2)  ---------------------------------------


    POTLOK:  cpu time    0.1017: real time    0.1026
    SETDIJ:  cpu time    1.7310: real time    1.7310
    TRIAL :  cpu time   78.4897: real time   78.6624
    CORREC:  cpu time   79.5597: real time   79.7286
    CHARGE:  cpu time    0.1334: real time    0.1334
    --------------------------------------------
      LOOP:  cpu time  160.0184: real time  160.3787

 eigenvalue-minimisations  :     0
 total energy-change (2. order) :-0.1330063E-02  (-0.5835902E-03)
 number of electron    1406.0004384 magnetization       1.9999993
 augmentation part      612.0324421 magnetization       1.4005428

 Free energy of the ion-electron system (eV)
  ---------------------------------------------------
  alpha Z        PSCENC =      9560.78109732
  Ewald energy   TEWEN  =   -118750.34382708
  -Hartree energ DENC   =    -44782.22058817
  -exchange      EXHF   =      5281.72927399
  -V(xc)+E(xc)   XCENC  =      4759.26597760
  PAW double counting   =    127535.11185515  -149128.66226986
  entropy T*S    EENTRO =        -0.00000000
  eigenvalues    EBANDS =    -13818.95653593
  atomic energy  EATOM  =    177818.78644850
  ---------------------------------------------------
  free energy    TOTEN  =     -1524.50856848 eV

  energy without entropy =    -1524.50856848  energy(sigma->0) =    -1524.50856848
  exchange ACFDT corr.  =         0.00000000  see jH, gK, PRB 81, 115126


--------------------------------------------------------------------------------------------------------




--------------------------------------- Iteration      1(   3)  ---------------------------------------


    POTLOK:  cpu time    0.0920: real time    0.0927
    SETDIJ:  cpu time    1.7363: real time    1.7364
    TRIAL :  cpu time   78.7074: real time   78.8598
    CORREC:  cpu time   79.2113: real time   79.3824
    CHARGE:  cpu time    0.1345: real time    0.1345
    --------------------------------------------
      LOOP:  cpu time  159.8832: real time  160.2259

 eigenvalue-minimisations  :     0
 total energy-change (2. order) :-0.5832892E-03  (-0.2737706E-03)
 number of electron    1406.0004384 magnetization       1.9999993
 augmentation part      612.0265988 magnetization       1.3999645

 Free energy of the ion-electron system (eV)
  ---------------------------------------------------
  alpha Z        PSCENC =      9560.78109732
  Ewald energy   TEWEN  =   -118750.34382708
  -Hartree energ DENC   =    -44781.82211644
  -exchange      EXHF   =      5281.74411676
  -V(xc)+E(xc)   XCENC  =      4759.26539936
  PAW double counting   =    127528.65674347  -149121.56360315
  entropy T*S    EENTRO =        -0.00000000
  eigenvalues    EBANDS =    -13820.01341051
  atomic energy  EATOM  =    177818.78644850
  ---------------------------------------------------
  free energy    TOTEN  =     -1524.50915177 eV

  energy without entropy =    -1524.50915177  energy(sigma->0) =    -1524.50915177
  exchange ACFDT corr.  =         0.00000000  see jH, gK, PRB 81, 115126


--------------------------------------------------------------------------------------------------------




--------------------------------------- Iteration      1(   4)  ---------------------------------------


    POTLOK:  cpu time    0.0901: real time    0.0908
    SETDIJ:  cpu time    1.7372: real time    1.7373
    TRIAL :  cpu time   78.4133: real time   78.5946
    CORREC:  cpu time   79.4781: real time   79.6476
    CHARGE:  cpu time    0.1339: real time    0.1339
    --------------------------------------------
      LOOP:  cpu time  159.8549: real time  160.2232

 eigenvalue-minimisations  :     0
 total energy-change (2. order) :-0.2735347E-03  (-0.1302872E-03)
 number of electron    1406.0004384 magnetization       1.9999993
 augmentation part      612.0280463 magnetization       1.3997063

 Free energy of the ion-electron system (eV)
  ---------------------------------------------------
  alpha Z        PSCENC =      9560.78109732
  Ewald energy   TEWEN  =   -118750.34382708
  -Hartree energ DENC   =    -44781.25663221
  -exchange      EXHF   =      5281.71975649
  -V(xc)+E(xc)   XCENC  =      4759.24564722
  PAW double counting   =    127525.07154036  -149117.44233209
  entropy T*S    EENTRO =        -0.00000000
  eigenvalues    EBANDS =    -13821.07112383
  atomic energy  EATOM  =    177818.78644850
  ---------------------------------------------------
  free energy    TOTEN  =     -1524.50942530 eV

  energy without entropy =    -1524.50942530  energy(sigma->0) =    -1524.50942530
  exchange ACFDT corr.  =         0.00000000  see jH, gK, PRB 81, 115126


--------------------------------------------------------------------------------------------------------




--------------------------------------- Iteration      1(   5)  ---------------------------------------


    POTLOK:  cpu time    0.0934: real time    0.0941
    SETDIJ:  cpu time    1.7521: real time    1.7522
    TRIAL :  cpu time   78.7460: real time   78.9290
    CORREC:  cpu time   79.5573: real time   79.7364
    CHARGE:  cpu time    0.1328: real time    0.1328
    --------------------------------------------
      LOOP:  cpu time  160.2838: real time  160.6657

 eigenvalue-minimisations  :     0
 total energy-change (2. order) :-0.1305231E-03  (-0.1032707E-03)
 number of electron    1406.0004384 magnetization       1.9999993
 augmentation part      612.0276477 magnetization       1.3984902

 Free energy of the ion-electron system (eV)
  ---------------------------------------------------
  alpha Z        PSCENC =      9560.78109732
  Ewald energy   TEWEN  =   -118750.34382708
  -Hartree energ DENC   =    -44781.46064140
  -exchange      EXHF   =      5281.71373310
  -V(xc)+E(xc)   XCENC  =      4759.24569921
  PAW double counting   =    127524.93258335  -149117.62527083
  entropy T*S    EENTRO =        -0.00000000
  eigenvalues    EBANDS =    -13820.53937800
  atomic energy  EATOM  =    177818.78644850
  ---------------------------------------------------
  free energy    TOTEN  =     -1524.50955583 eV

  energy without entropy =    -1524.50955583  energy(sigma->0) =    -1524.50955583
  exchange ACFDT corr.  =         0.00000000  see jH, gK, PRB 81, 115126


--------------------------------------------------------------------------------------------------------




--------------------------------------- Iteration      1(   6)  ---------------------------------------


    POTLOK:  cpu time    0.0920: real time    0.0928
    SETDIJ:  cpu time    1.7427: real time    1.7429
    TRIAL :  cpu time   78.6993: real time   78.8782
    CORREC:  cpu time   79.3527: real time   79.5311
    CHARGE:  cpu time    0.1327: real time    0.1327
    --------------------------------------------
      LOOP:  cpu time  160.0218: real time  160.3966

 eigenvalue-minimisations  :     0
 total energy-change (2. order) :-0.1029971E-03  (-0.1022933E-03)
 number of electron    1406.0004384 magnetization       1.9999993
 augmentation part      612.0246850 magnetization       1.3970362

 Free energy of the ion-electron system (eV)
  ---------------------------------------------------
  alpha Z        PSCENC =      9560.78109732
  Ewald energy   TEWEN  =   -118750.34382708
  -Hartree energ DENC   =    -44781.64156539
  -exchange      EXHF   =      5281.72383137
  -V(xc)+E(xc)   XCENC  =      4759.24849558
  PAW double counting   =    127525.93708572  -149118.82917501
  entropy T*S    EENTRO =        -0.00000000
  eigenvalues    EBANDS =    -13820.17204984
  atomic energy  EATOM  =    177818.78644850
  ---------------------------------------------------
  free energy    TOTEN  =     -1524.50965882 eV

  energy without entropy =    -1524.50965882  energy(sigma->0) =    -1524.50965882
  exchange ACFDT corr.  =         0.00000000  see jH, gK, PRB 81, 115126


--------------------------------------------------------------------------------------------------------




--------------------------------------- Iteration      1(   7)  ---------------------------------------


    POTLOK:  cpu time    0.0918: real time    0.0926
    SETDIJ:  cpu time    1.7460: real time    1.7461
    TRIAL :  cpu time   78.7186: real time   78.9057
    CORREC:  cpu time   79.6288: real time   79.8113
    CHARGE:  cpu time    0.1337: real time    0.1337
    --------------------------------------------
      LOOP:  cpu time  160.3258: real time  160.7786

 eigenvalue-minimisations  :     0
 total energy-change (2. order) :-0.1022189E-03  (-0.6090056E-04)
 number of electron    1406.0004384 magnetization       1.9999993
 augmentation part      612.0272973 magnetization       1.3965488

 Free energy of the ion-electron system (eV)
  ---------------------------------------------------
  alpha Z        PSCENC =      9560.78109732
  Ewald energy   TEWEN  =   -118750.34382708
  -Hartree energ DENC   =    -44781.52083282
  -exchange      EXHF   =      5281.73934584
  -V(xc)+E(xc)   XCENC  =      4759.24762215
  PAW double counting   =    127526.88787865  -149119.40177939
  entropy T*S    EENTRO =        -0.00000000
  eigenvalues    EBANDS =    -13820.68571421
  atomic energy  EATOM  =    177818.78644850
  ---------------------------------------------------
  free energy    TOTEN  =     -1524.50976104 eV

  energy without entropy =    -1524.50976104  energy(sigma->0) =    -1524.50976104
  exchange ACFDT corr.  =         0.00000000  see jH, gK, PRB 81, 115126


--------------------------------------------------------------------------------------------------------




--------------------------------------- Iteration      1(   8)  ---------------------------------------


    POTLOK:  cpu time    0.0930: real time    0.0937
    SETDIJ:  cpu time    1.7722: real time    1.7723
    TRIAL :  cpu time   78.8384: real time   79.0189
    CORREC:  cpu time   79.3460: real time   79.5311
    EDDIAG:  cpu time   76.8809: real time   77.0540
    CHARGE:  cpu time    0.1342: real time    0.1342
    --------------------------------------------
      LOOP:  cpu time  237.0675: real time  237.6201

 eigenvalue-minimisations  :     0
 total energy-change (2. order) :-0.6076010E-04  (-0.3080264E-04)
 number of electron    1406.0004384 magnetization       1.9999993
 augmentation part      612.0293521 magnetization       1.3961028

 Free energy of the ion-electron system (eV)
  ---------------------------------------------------
  alpha Z        PSCENC =      9560.78109732
  Ewald energy   TEWEN  =   -118750.34382708
  -Hartree energ DENC   =    -44781.63220191
  -exchange      EXHF   =      5281.74448690
  -V(xc)+E(xc)   XCENC  =      4759.25261873
  PAW double counting   =    127527.45725936  -149120.06245259
  entropy T*S    EENTRO =        -0.00000000
  eigenvalues    EBANDS =    -13820.49727861
  atomic energy  EATOM  =    177818.78644850
  ---------------------------------------------------
  free energy    TOTEN  =     -1524.50982180 eV

  energy without entropy =    -1524.50982180  energy(sigma->0) =    -1524.50982180
  exchange ACFDT corr.  =         0.00000000  see jH, gK, PRB 81, 115126


--------------------------------------------------------------------------------------------------------


  average scaling for gradient   1.0681


 average (electrostatic) potential at core
  the test charge radii are     1.0314  1.0025  0.7215
  (the norm of the test charge is              1.0000)
       1 -20.1147       2 -20.1175       3 -20.0695       4 -20.0333       5 -20.0231
       6 -20.0524       7 -20.0914       8 -20.0354       9 -20.1020      10 -20.1485
      11 -20.0259      12 -20.0503      13 -20.1101      14 -20.2601      15 -20.1435
      16 -20.0569      17 -20.2193      18 -20.3966      19 -20.2359      20 -20.0856
      21 -20.1087      22 -20.2744      23 -20.1416      24 -20.0259      25 -20.3313
      26 -20.1041      27 -20.0928      28 -20.0592      29 -20.2204      30 -20.4013
      31 -20.2378      32 -20.2845      33 -20.0265      34 -20.1144      35 -20.0263
      36 -20.0917      37 -20.0926      38 -20.3175      39 -20.1016      40 -20.0484
      41 -20.0479      42 -20.0250      43 -20.0919      44 -20.0524      45 -20.0374
      46 -20.0498      47 -20.0982      48 -20.1080      49 -20.1046      50 -20.0245
      51 -20.1104      52 -20.1424      53 -20.1082      54 -20.1558      55 -20.0518
      56 -20.0903      57 -20.0789      58 -20.0226      59 -20.0327      60 -20.0683
      61 -20.1178      62 -20.0462      63 -20.0612      64 -44.0699      65 -63.6445
      66 -63.6924      67 -63.4923      68 -63.2421      69 -63.5070      70 -63.4733
      71 -63.4472      72 -63.5367      73 -63.1503      74 -63.1507      75 -63.6232
      76 -63.6041      77 -63.4442      78 -63.4381      79 -63.1252      80 -63.1552
      81 -63.6121      82 -63.7017      83 -63.6056      84 -63.6033      85 -63.2394
      86 -63.1387      87 -63.7483      88 -63.6179      89 -63.4676      90 -63.1312
      91 -63.2146      92 -63.6944      93 -63.6463      94 -63.6239      95 -63.6049
      96 -63.4678      97 -63.4591      98 -63.1260      99 -63.1563     100 -63.6970
     101 -64.0131     102 -63.2574     103 -63.6104     104 -63.9284     105 -63.1742
     106 -63.7503     107 -63.6183     108 -63.5282     109 -63.5335     110 -63.1318
     111 -63.2426     112 -63.5081     113 -63.2158     114 -63.5425     115 -63.4482
     116 -63.6490     117 -63.4671     118 -63.4580     119 -63.1710     120 -63.2121
     121 -63.6167     122 -64.0113     123 -64.5398     124 -63.5882     125 -63.8838
     126 -63.1727     127 -64.0727     128 -63.6582     129 -63.5272     130 -63.5336
     131 -63.1663     132 -63.3087     133 -63.6456     134 -63.6968     135 -63.2549
     136 -63.6074     137 -63.1933     138 -63.1334     139 -63.4739     140 -63.4675
     141 -63.6092     142 -63.6766     143 -63.1383     144 -63.2400     145 -63.4768
     146 -63.5188     147 -63.7055     148 -63.6123     149 -63.1488     150 -63.1338
     151 -63.4377     152 -63.4442     153 -63.6067     154 -63.6029     155 -63.1513
     156 -63.1508     157 -63.4791     158 -63.4448     159 -63.6170     160 -63.6082
 
 
 
 E-fermi :   1.0957     XC(G=0):  -8.8770     alpha+bet :-11.2683


 spin component 1

 k-point     1 :       0.2500    0.2500    0.2500
  band No.  band energies     occupation 
      1     -48.0194      1.00000
      2     -48.0058      1.00000
      3     -47.9805      1.00000
      4     -20.0162      1.00000
      5     -19.8650      1.00000
      6     -19.8148      1.00000
      7     -19.7763      1.00000
      8     -19.6453      1.00000
      9     -19.6232      1.00000
     10     -19.5999      1.00000
     11     -19.4532      1.00000
     12     -19.4239      1.00000
     13     -19.3771      1.00000
     14     -19.3152      1.00000
     15     -19.3024      1.00000
     16     -19.2668      1.00000
     17     -19.2349      1.00000
     18     -19.1940      1.00000
     19     -19.1627      1.00000
     20     -19.1263      1.00000
     21     -19.1141      1.00000
     22     -19.0774      1.00000
     23     -19.0519      1.00000
     24     -19.0389      1.00000
     25     -19.0103      1.00000
     26     -18.9859      1.00000
     27     -18.9693      1.00000
     28     -18.9563      1.00000
     29     -18.9533      1.00000
     30     -18.9460      1.00000
     31     -18.9101      1.00000
     32     -18.8912      1.00000
     33     -18.8833      1.00000
     34     -18.8671      1.00000
     35     -18.8611      1.00000
     36     -18.8435      1.00000
     37     -18.8332      1.00000
     38     -18.8077      1.00000
     39     -18.7945      1.00000
     40     -18.7901      1.00000
     41     -18.7784      1.00000
     42     -18.7692      1.00000
     43     -18.7525      1.00000
     44     -18.7252      1.00000
     45     -18.7171      1.00000
     46     -18.7077      1.00000
     47     -18.6819      1.00000
     48     -18.6616      1.00000
     49     -18.6538      1.00000
     50     -18.6489      1.00000
     51     -18.6341      1.00000
     52     -18.6192      1.00000
     53     -18.6143      1.00000
     54     -18.6000      1.00000
     55     -18.5955      1.00000
     56     -18.5853      1.00000
     57     -18.5739      1.00000
     58     -18.5582      1.00000
     59     -18.5547      1.00000
     60     -18.5461      1.00000
     61     -18.5393      1.00000
     62     -18.5246      1.00000
     63     -18.5145      1.00000
     64     -18.5039      1.00000
     65     -18.4964      1.00000
     66     -18.4908      1.00000
     67     -18.4836      1.00000
     68     -18.4769      1.00000
     69     -18.4660      1.00000
     70     -18.4275      1.00000
     71     -18.4154      1.00000
     72     -18.3991      1.00000
     73     -18.3937      1.00000
     74     -18.3833      1.00000
     75     -18.3592      1.00000
     76     -18.3537      1.00000
     77     -18.3499      1.00000
     78     -18.3281      1.00000
     79     -18.3252      1.00000
     80     -18.3178      1.00000
     81     -18.3065      1.00000
     82     -18.3029      1.00000
     83     -18.2887      1.00000
     84     -18.2767      1.00000
     85     -18.2676      1.00000
     86     -18.2599      1.00000
     87     -18.2583      1.00000
     88     -18.2546      1.00000
     89     -18.2470      1.00000
     90     -18.2400      1.00000
     91     -18.2282      1.00000
     92     -18.2226      1.00000
     93     -18.2194      1.00000
     94     -18.2171      1.00000
     95     -18.1943      1.00000
     96     -18.1822      1.00000
     97     -18.1799      1.00000
     98     -18.1609      1.00000
     99     -18.1391      1.00000
    100     -14.4164      1.00000
    101     -14.3827      1.00000
    102     -14.3606      1.00000
    103     -14.3259      1.00000
    104     -14.3011      1.00000
    105     -14.2904      1.00000
    106     -14.2846      1.00000
    107     -14.2736      1.00000
    108     -14.2659      1.00000
    109     -14.2621      1.00000
    110     -14.2604      1.00000
    111     -14.2550      1.00000
    112     -14.2508      1.00000
    113     -14.2471      1.00000
    114     -14.2440      1.00000
    115     -14.2367      1.00000
    116     -14.2319      1.00000
    117     -14.2289      1.00000
    118     -14.2280      1.00000
    119     -14.2223      1.00000
    120     -14.2170      1.00000
    121     -14.2096      1.00000
    122     -14.2051      1.00000
    123     -14.2016      1.00000
    124     -14.1979      1.00000
    125     -14.1942      1.00000
    126     -14.1921      1.00000
    127     -14.1880      1.00000
    128     -14.1857      1.00000
    129     -14.1834      1.00000
    130     -14.1796      1.00000
    131     -14.1758      1.00000
    132     -14.1743      1.00000
    133     -14.1704      1.00000
    134     -14.1677      1.00000
    135     -14.1659      1.00000
    136     -14.1600      1.00000
    137     -14.1572      1.00000
    138     -14.1531      1.00000
    139     -14.1501      1.00000
    140     -14.1473      1.00000
    141     -14.1451      1.00000
    142     -14.1435      1.00000
    143     -14.1415      1.00000
    144     -14.1404      1.00000
    145     -14.1371      1.00000
    146     -14.1340      1.00000
    147     -14.1331      1.00000
    148     -14.1286      1.00000
    149     -14.1274      1.00000
    150     -14.1249      1.00000
    151     -14.1231      1.00000
    152     -14.1197      1.00000
    153     -14.1165      1.00000
    154     -14.1147      1.00000
    155     -14.1125      1.00000
    156     -14.1118      1.00000
    157     -14.1089      1.00000
    158     -14.1069      1.00000
    159     -14.1056      1.00000
    160     -14.1042      1.00000
    161     -14.1000      1.00000
    162     -14.0980      1.00000
    163     -14.0956      1.00000
    164     -14.0943      1.00000
    165     -14.0929      1.00000
    166     -14.0899      1.00000
    167     -14.0887      1.00000
    168     -14.0879      1.00000
    169     -14.0860      1.00000
    170     -14.0850      1.00000
    171     -14.0820      1.00000
    172     -14.0806      1.00000
    173     -14.0778      1.00000
    174     -14.0762      1.00000
    175     -14.0754      1.00000
    176     -14.0736      1.00000
    177     -14.0717      1.00000
    178     -14.0696      1.00000
    179     -14.0677      1.00000
    180     -14.0661      1.00000
    181     -14.0655      1.00000
    182     -14.0627      1.00000
    183     -14.0598      1.00000
    184     -14.0562      1.00000
    185     -14.0552      1.00000
    186     -14.0534      1.00000
    187     -14.0517      1.00000
    188     -14.0506      1.00000
    189     -14.0482      1.00000
    190     -14.0455      1.00000
    191     -14.0445      1.00000
    192     -14.0428      1.00000
    193     -14.0409      1.00000
    194     -14.0350      1.00000
    195     -14.0319      1.00000
    196     -14.0311      1.00000
    197     -14.0264      1.00000
    198     -14.0238      1.00000
    199     -14.0201      1.00000
    200     -14.0181      1.00000
    201     -14.0120      1.00000
    202     -14.0086      1.00000
    203     -14.0064      1.00000
    204     -14.0010      1.00000
    205     -14.0004      1.00000
    206     -13.9976      1.00000
    207     -13.9926      1.00000
    208     -13.9886      1.00000
    209     -13.9855      1.00000
    210     -13.9842      1.00000
    211     -13.9823      1.00000
    212     -13.9759      1.00000
    213     -13.9755      1.00000
    214     -13.9730      1.00000
    215     -13.9708      1.00000
    216     -13.9660      1.00000
    217     -13.9634      1.00000
    218     -13.9619      1.00000
    219     -13.9610      1.00000
    220     -13.9590      1.00000
    221     -13.9551      1.00000
    222     -13.9525      1.00000
    223     -13.9504      1.00000
    224     -13.9495      1.00000
    225     -13.9459      1.00000
    226     -13.9441      1.00000
    227     -13.9433      1.00000
    228     -13.9396      1.00000
    229     -13.9389      1.00000
    230     -13.9371      1.00000
    231     -13.9353      1.00000
    232     -13.9341      1.00000
    233     -13.9323      1.00000
    234     -13.9301      1.00000
    235     -13.9285      1.00000
    236     -13.9259      1.00000
    237     -13.9244      1.00000
    238     -13.9231      1.00000
    239     -13.9217      1.00000
    240     -13.9211      1.00000
    241     -13.9203      1.00000
    242     -13.9160      1.00000
    243     -13.9128      1.00000
    244     -13.9119      1.00000
    245     -13.9105      1.00000
    246     -13.9074      1.00000
    247     -13.9065      1.00000
    248     -13.9034      1.00000
    249     -13.9008      1.00000
    250     -13.8983      1.00000
    251     -13.8979      1.00000
    252     -13.8963      1.00000
    253     -13.8939      1.00000
    254     -13.8926      1.00000
    255     -13.8913      1.00000
    256     -13.8910      1.00000
    257     -13.8887      1.00000
    258     -13.8875      1.00000
    259     -13.8851      1.00000
    260     -13.8827      1.00000
    261     -13.8814      1.00000
    262     -13.8789      1.00000
    263     -13.8767      1.00000
    264     -13.8749      1.00000
    265     -13.8715      1.00000
    266     -13.8701      1.00000
    267     -13.8665      1.00000
    268     -13.8653      1.00000
    269     -13.8630      1.00000
    270     -13.8608      1.00000
    271     -13.8587      1.00000
    272     -13.8568      1.00000
    273     -13.8547      1.00000
    274     -13.8526      1.00000
    275     -13.8503      1.00000
    276     -13.8492      1.00000
    277     -13.8474      1.00000
    278     -13.8449      1.00000
[...]
      1.95239      3.03372      5.92828         0.002800      0.000425     -0.006213
      3.88664      7.57697      7.37430        -0.004414     -0.000675     -0.005464
      3.90496      4.51557      1.60955         0.007113     -0.003125      0.005023
      5.90999      3.03545      2.83305         0.035031      0.001103     -0.012665
      5.90134      3.03542      0.04736         0.004033     -0.001756     -0.007159
      4.01228      4.47052      4.17638         0.013316     -0.003890     -0.003284
      7.87235      4.55936     -1.32006         0.001760      0.002040      0.002686
      2.12103      3.03443      2.77391         0.021623     -0.000154      0.009846
      9.81391      3.03434      0.12431        -0.005200     -0.000364      0.001226
      0.04130      4.55334      4.28834        -0.003739     -0.001882     -0.000124
     11.83128      4.55437     -1.41760        -0.008683      0.004390      0.002002
      9.92518      3.03459      2.73637        -0.007990     -0.000162     -0.002379
      1.93925      3.03396      0.15075         0.003873     -0.000305     -0.001000
      7.97264      1.51279      7.07559         0.002223     -0.001403      0.002653
      3.88501      1.51622      7.37528         0.001508      0.000547     -0.005733
      7.86313      4.54787      4.46324        -0.001704      0.002775     -0.015134
      7.97242      7.57539      7.07689        -0.001602      0.003694      0.002966
      1.94335      9.09994      0.13300        -0.002590      0.000058     -0.007739
      9.92091      9.10056      2.73993        -0.005943      0.000272     -0.008687
     11.83170     10.62755     -1.42254        -0.002252     -0.004786      0.002788
      0.03351     10.62589      4.29738        -0.010447      0.000974     -0.001446
      9.81451      9.10021      0.12572        -0.006094     -0.000103      0.000988
      2.04969      9.10060      2.75080        -0.008427     -0.000081      0.001733
      7.87457     10.62572     -1.32258        -0.000298     -0.003239      0.004164
      3.98234     10.63587      4.19889        -0.009970     -0.002773      0.005741
      5.89850      9.10126      0.03290         0.005436     -0.000905      0.003133
      5.95561      9.10109      2.84807        -0.004743     -0.000672      0.000534
      3.88459     10.62817      1.58254        -0.004443      0.000161     -0.000258
      7.97107     10.62721      1.29332         0.002418     -0.003564     -0.003078
      1.94533      9.10018      5.92221        -0.002373      0.000268     -0.017889
      9.92132      9.10035      8.52898         0.000365      0.000437      0.014675
     11.83110     10.62582      4.36015        -0.004906      0.002043     -0.003238
      0.03473     10.62540     10.09312        -0.006680      0.001874     -0.001514
      9.81630      9.09963      5.91357        -0.002318      0.000851     -0.007440
      2.04614      9.10026      8.53720        -0.003020     -0.000164      0.000734
      7.87250     10.62857      4.46577        -0.004896     -0.002710     -0.016090
      3.98208     10.62511      9.98798        -0.000499     -0.002048      0.012171
      5.89619      9.10098      5.81348        -0.004050     -0.000744     -0.005779
      5.96212      9.10157      8.63501         0.002037     -0.000738     -0.001015
      3.88645     10.62310      7.37452        -0.003968      0.000723     -0.006511
      7.97248     10.62528      7.07654        -0.001688     -0.003105      0.003319
 -----------------------------------------------------------------------------------
    total drift:                                0.362262      0.012379      0.122238


--------------------------------------------------------------------------------------------------------



  FREE ENERGIE OF THE ION-ELECTRON SYSTEM (eV)
  ---------------------------------------------------
  free  energy   TOTEN  =     -1524.51058557 eV

  energy  without entropy=    -1524.51058557  energy(sigma->0) =    -1524.51058557
 
 d Force = 0.1635986E-04[-0.777E-05, 0.405E-04]  d Energy = 0.1298518E-04 0.337E-05
 d Force = 0.2167187E-01[ 0.213E-01, 0.220E-01]  d Ewald  = 0.2167501E-01-0.314E-05


--------------------------------------------------------------------------------------------------------


    POTLOK:  cpu time    1.8679: real time    1.8680


--------------------------------------------------------------------------------------------------------




--------------------------------------------------------------------------------------------------------


  
 reached required accuracy - stopping structural energy minimisation
 writing wavefunctions
     LOOP+:  cpu time  897.8877: real time  901.6437
    4ORBIT:  cpu time    0.0000: real time    0.0000
 


 total charge     
 
# of ion       s       p       d       tot
------------------------------------------
    1        0.753   1.010  10.306  12.068
    2        0.751   1.005  10.303  12.059
    3        0.751   1.005  10.303  12.058
    4        0.653   0.821  10.268  11.742
    5        0.653   0.821  10.268  11.741
    6        0.752   1.010  10.306  12.068
    7        0.752   1.008  10.305  12.065
    8        0.654   0.823  10.269  11.746
    9        0.751   1.002  10.300  12.053
   10        0.750   0.997  10.298  12.045
   11        0.653   0.821  10.268  11.742
   12        0.653   0.825  10.271  11.749
   13        0.654   0.822  10.268  11.744
   14        0.750   0.994  10.296  12.041
   15        0.751   1.000  10.300  12.051
   16        0.653   0.822  10.268  11.744
   17        0.656   0.824  10.268  11.748
   18        0.752   0.994  10.296  12.042
   19        0.752   1.003  10.302  12.056
   20        0.654   0.823  10.269  11.746
   21        0.752   1.007  10.304  12.062
   22        0.654   0.819  10.269  11.742
   23        0.751   1.001  10.301  12.053
   24        0.655   0.829  10.274  11.758
   25        0.750   1.001  10.300  12.052
   26        0.751   1.004  10.302  12.058
   27        0.751   1.006  10.304  12.061
   28        0.653   0.822  10.268  11.743
   29        0.656   0.823  10.268  11.748
   30        0.752   0.994  10.296  12.041
   31        0.752   1.003  10.301  12.056
   32        0.654   0.819  10.268  11.741
   33        0.655   0.829  10.273  11.756
   34        0.753   1.010  10.306  12.068
   35        0.655   0.829  10.273  11.756
   36        0.653   0.825  10.272  11.750
   37        0.751   1.006  10.304  12.061
   38        0.751   1.002  10.301  12.053
   39        0.751   1.005  10.303  12.059
   40        0.654   0.825  10.271  11.749
   41        0.653   0.825  10.271  11.749
   42        0.655   0.829  10.274  11.758
   43        0.752   1.008  10.305  12.065
   44        0.752   1.010  10.306  12.069
   45        0.653   0.823  10.269  11.745
   46        0.654   0.825  10.271  11.749
   47        0.653   0.820  10.267  11.740
   48        0.750   0.999  10.299  12.049
   49        0.749   0.995  10.297  12.041
   50        0.653   0.821  10.268  11.742
   51        0.655   0.823  10.268  11.745
   52        0.751   1.002  10.301  12.053
   53        0.752   1.007  10.304  12.063
   54        0.653   0.814  10.263  11.730
   55        0.653   0.817  10.264  11.734
   56        0.750   1.000  10.300  12.051
   57        0.750   0.999  10.299  12.047
   58        0.653   0.821  10.268  11.742
   59        0.653   0.821  10.268  11.743
   60        0.751   1.005  10.303  12.059
   61        0.751   1.005  10.303  12.060
   62        0.653   0.819  10.266  11.737
   63        0.652   0.815  10.264  11.731
   64        0.403   6.504   3.753  10.661
   65        1.584   3.571   0.000   5.155
   66        1.584   3.572   0.000   5.156
   67        1.577   3.608   0.000   5.185
   68        1.580   3.582   0.000   5.162
   69        1.578   3.613   0.000   5.191
   70        1.577   3.610   0.000   5.188
   71        1.578   3.613   0.000   5.191
   72        1.578   3.612   0.000   5.190
   73        1.580   3.582   0.000   5.162
   74        1.580   3.581   0.000   5.160
   75        1.584   3.574   0.000   5.158
   76        1.584   3.572   0.000   5.156
   77        1.578   3.611   0.000   5.189
   78        1.577   3.611   0.000   5.188
   79        1.580   3.582   0.000   5.162
   80        1.580   3.579   0.000   5.159
   81        1.584   3.569   0.000   5.153
   82        1.584   3.572   0.000   5.155
   83        1.578   3.614   0.000   5.191
   84        1.578   3.615   0.000   5.193
   85        1.580   3.581   0.000   5.160
   86        1.580   3.582   0.000   5.162
   87        1.584   3.570   0.000   5.154
   88        1.584   3.572   0.000   5.156
   89        1.578   3.611   0.000   5.189
   90        1.580   3.582   0.000   5.162
   91        1.580   3.580   0.000   5.160
   92        1.584   3.570   0.000   5.154
   93        1.583   3.569   0.000   5.152
   94        1.584   3.574   0.000   5.158
   95        1.584   3.572   0.000   5.156
   96        1.578   3.612   0.000   5.189
   97        1.577   3.613   0.000   5.190
   98        1.580   3.582   0.000   5.162
   99        1.580   3.579   0.000   5.159
  100        1.584   3.570   0.000   5.154
  101        1.585   3.563   0.000   5.147
  102        1.580   3.580   0.000   5.160
  103        1.578   3.613   0.000   5.191
  104        1.587   3.551   0.000   5.138
  105        1.580   3.582   0.000   5.162
  106        1.584   3.570   0.000   5.154
  107        1.584   3.572   0.000   5.156
  108        1.578   3.610   0.000   5.188
  109        1.577   3.612   0.000   5.189
  110        1.580   3.582   0.000   5.162
  111        1.580   3.582   0.000   5.162
  112        1.578   3.613   0.000   5.191
  113        1.580   3.580   0.000   5.160
  114        1.578   3.612   0.000   5.190
  115        1.578   3.613   0.000   5.191
  116        1.583   3.569   0.000   5.153
  117        1.578   3.612   0.000   5.189
  118        1.577   3.613   0.000   5.190
  119        1.579   3.579   0.000   5.158
  120        1.580   3.580   0.000   5.159
  121        1.584   3.572   0.000   5.155
  122        1.585   3.563   0.000   5.147
  123        1.586   3.574   0.000   5.160
  124        1.578   3.611   0.000   5.188
  125        1.587   3.553   0.000   5.139
  126        1.580   3.582   0.000   5.162
  127        1.586   3.552   0.000   5.138
  128        1.583   3.569   0.000   5.153
  129        1.578   3.610   0.000   5.188
  130        1.577   3.612   0.000   5.189
  131        1.579   3.580   0.000   5.159
  132        1.579   3.578   0.000   5.157
  133        1.584   3.571   0.000   5.155
  134        1.584   3.572   0.000   5.156
  135        1.580   3.580   0.000   5.160
  136        1.584   3.570   0.000   5.154
  137        1.579   3.582   0.000   5.161
  138        1.579   3.579   0.000   5.158
  139        1.577   3.610   0.000   5.188
  140        1.578   3.611   0.000   5.189
  141        1.583   3.567   0.000   5.150
  142        1.583   3.567   0.000   5.150
  143        1.580   3.582   0.000   5.162
  144        1.580   3.581   0.000   5.160
  145        1.577   3.610   0.000   5.187
  146        1.577   3.610   0.000   5.187
  147        1.584   3.572   0.000   5.156
  148        1.584   3.569   0.000   5.153
  149        1.579   3.579   0.000   5.158
  150        1.579   3.579   0.000   5.158
  151        1.577   3.611   0.000   5.189
  152        1.578   3.611   0.000   5.189
  153        1.583   3.567   0.000   5.150
  154        1.583   3.568   0.000   5.152
  155        1.580   3.581   0.000   5.160
  156        1.580   3.582   0.000   5.162
  157        1.577   3.609   0.000   5.186
  158        1.577   3.609   0.000   5.186
  159        1.584   3.572   0.000   5.156
  160        1.584   3.570   0.000   5.154
--------------------------------------------------
tot        196.442 408.375 651.7361256.554
 


 magnetization (x)
 
# of ion       s       p       d       tot
------------------------------------------
    1        0.000   0.000   0.000   0.000
    2       -0.000   0.000  -0.000   0.000
    3        0.000   0.000   0.000   0.000
    4        0.000   0.000  -0.000   0.000
    5        0.000  -0.000  -0.000   0.000
    6        0.000   0.000  -0.000   0.000
    7        0.000   0.000  -0.000   0.000
    8        0.000   0.000   0.000   0.000
    9        0.000   0.000   0.000   0.000
   10        0.000  -0.000  -0.000  -0.000
   11        0.000   0.000  -0.000   0.000
   12        0.000  -0.000  -0.000   0.000
   13       -0.000   0.000   0.000   0.000
   14        0.000  -0.000  -0.000  -0.000
   15        0.000   0.000   0.000   0.000
   16        0.000   0.000  -0.000   0.000
   17        0.001   0.001   0.000   0.003
   18        0.002   0.003   0.000   0.005
   19        0.000   0.000  -0.000   0.001
   20        0.000   0.000   0.000   0.000
   21       -0.000   0.000   0.000   0.000
   22        0.003   0.003   0.001   0.006
   23        0.000   0.000   0.000   0.000
   24        0.000   0.000   0.000   0.000
   25        0.002   0.003   0.000   0.005
   26        0.000   0.000   0.000   0.000
   27        0.000  -0.000  -0.000  -0.000
   28        0.000   0.000  -0.000   0.000
   29        0.001   0.001   0.000   0.003
   30        0.002   0.003   0.000   0.005
   31        0.000   0.001  -0.000   0.001
   32        0.003   0.003   0.001   0.007
   33        0.000  -0.000  -0.000  -0.000
   34        0.000  -0.000   0.000   0.000
   35        0.000  -0.000  -0.000  -0.000
   36        0.000   0.000   0.000   0.000
   37        0.000  -0.000  -0.000  -0.000
   38        0.002   0.003   0.001   0.005
   39        0.000   0.000   0.000   0.000
   40        0.000   0.000  -0.000   0.000
   41        0.000  -0.000  -0.000   0.000
   42        0.000   0.000   0.000   0.000
   43        0.000   0.000  -0.000   0.000
   44        0.000   0.000  -0.000   0.000
   45        0.000   0.000   0.000   0.000
   46        0.000   0.000  -0.000   0.000
   47        0.000  -0.000  -0.000   0.000
   48        0.000  -0.000   0.000   0.000
   49        0.000   0.000   0.000   0.000
   50        0.000   0.000  -0.000   0.000
   51       -0.000  -0.000   0.000   0.000
   52        0.000   0.000   0.000   0.000
   53       -0.000   0.000   0.000  -0.000
   54        0.000  -0.000  -0.000   0.000
   55        0.000   0.000  -0.000   0.000
   56        0.000   0.000   0.000   0.000
   57        0.000  -0.000  -0.000  -0.000
   58        0.000  -0.000  -0.000   0.000
   59        0.000   0.000  -0.000  -0.000
   60        0.000   0.000   0.000   0.000
   61       -0.000   0.000  -0.000   0.000
   62        0.000  -0.000  -0.000  -0.000
   63        0.000   0.000  -0.000   0.000
   64        0.013   0.022   1.984   2.019
   65       -0.000  -0.000   0.000  -0.000
   66        0.000   0.000   0.000   0.000
   67       -0.000  -0.000   0.000  -0.000
   68       -0.000  -0.000   0.000  -0.000
   69        0.000  -0.000   0.000  -0.000
   70        0.000   0.000   0.000   0.000
   71        0.000  -0.000   0.000  -0.000
   72        0.000  -0.000   0.000  -0.000
   73        0.000   0.000   0.000   0.000
   74        0.000   0.000   0.000   0.000
   75        0.000   0.000   0.000   0.000
   76       -0.000  -0.000   0.000  -0.000
   77       -0.000  -0.000   0.000  -0.000
   78       -0.000  -0.000   0.000  -0.000
   79        0.000  -0.000   0.000  -0.000
   80       -0.000  -0.000   0.000  -0.000
   81        0.000   0.000   0.000   0.000
   82       -0.000   0.000   0.000   0.000
   83        0.000   0.001   0.000   0.001
   84       -0.000  -0.001   0.000  -0.001
   85        0.000   0.000   0.000   0.000
   86       -0.000  -0.000   0.000  -0.000
   87        0.000   0.002   0.000   0.003
   88        0.000  -0.000   0.000  -0.000
   89        0.000   0.000   0.000   0.000
   90       -0.000  -0.000   0.000  -0.000
   91        0.000  -0.000   0.000  -0.000
   92        0.000  -0.000   0.000   0.000
   93       -0.000  -0.000   0.000  -0.000
   94        0.000   0.000   0.000   0.000
   95       -0.000  -0.000   0.000  -0.000
   96        0.000  -0.000   0.000  -0.000
   97       -0.000  -0.000   0.000  -0.000
   98        0.000  -0.000   0.000  -0.000
   99       -0.000  -0.000   0.000  -0.000
  100        0.000   0.000   0.000   0.000
  101       -0.001  -0.010   0.000  -0.011
  102        0.000  -0.001   0.000  -0.001
  103        0.000   0.001   0.000   0.001
  104       -0.001  -0.013   0.000  -0.014
  105        0.000  -0.000   0.000  -0.000
  106        0.000   0.002   0.000   0.003
  107        0.000  -0.000   0.000  -0.000
  108       -0.000  -0.001   0.000  -0.001
  109        0.000  -0.000   0.000  -0.000
  110       -0.000  -0.000   0.000  -0.000
  111       -0.000  -0.000   0.000  -0.000
  112        0.000  -0.000   0.000  -0.000
  113        0.000  -0.000   0.000  -0.000
  114        0.000  -0.000   0.000  -0.000
  115        0.000  -0.000   0.000  -0.000
  116       -0.000  -0.000   0.000  -0.000
  117        0.000  -0.000   0.000  -0.000
  118       -0.000  -0.000   0.000  -0.000
  119       -0.000  -0.000   0.000  -0.000
  120       -0.000  -0.001   0.000  -0.001
  121        0.000   0.000   0.000   0.000
  122       -0.001  -0.011   0.000  -0.011
  123       -0.002  -0.054   0.000  -0.057
  124       -0.000  -0.002   0.000  -0.002
  125       -0.001  -0.009   0.000  -0.010
  126        0.000  -0.000   0.000  -0.000
  127       -0.001  -0.022   0.000  -0.023
  128        0.000   0.000   0.000   0.000
  129        0.000  -0.001   0.000  -0.001
  130        0.000  -0.000   0.000  -0.000
  131        0.000  -0.000   0.000   0.000
  132        0.000   0.000   0.000   0.000
  133       -0.000  -0.000   0.000  -0.000
  134        0.000   0.000   0.000   0.000
  135        0.000  -0.001   0.000  -0.001
  136        0.000  -0.000   0.000  -0.000
  137       -0.000  -0.000   0.000  -0.000
  138        0.000   0.000   0.000   0.000
  139        0.000   0.000   0.000   0.000
  140        0.000   0.000   0.000   0.000
  141        0.000   0.000   0.000   0.000
  142        0.000   0.000   0.000   0.000
  143       -0.000  -0.000   0.000  -0.000
  144        0.000   0.000   0.000   0.000
  145       -0.000  -0.000   0.000  -0.000
  146        0.000   0.000   0.000   0.000
  147       -0.000   0.000   0.000   0.000
  148        0.000  -0.000   0.000   0.000
  149        0.000  -0.000   0.000  -0.000
  150        0.000   0.000   0.000   0.000
  151       -0.000  -0.000   0.000  -0.000
  152       -0.000  -0.000   0.000  -0.000
  153        0.000  -0.000   0.000  -0.000
  154       -0.000  -0.000   0.000  -0.000
  155        0.000   0.000   0.000   0.000
  156        0.000   0.000   0.000   0.000
  157       -0.000  -0.000   0.000  -0.000
  158        0.000   0.000   0.000   0.000
  159        0.000   0.000   0.000   0.000
  160        0.000  -0.000   0.000  -0.000
--------------------------------------------------
tot          0.027  -0.081   1.986   1.931
 

 total amount of memory used by VASP MPI-rank0   108973. kBytes
=======================================================================

   base      :      30000. kBytes
   nonlr-proj:      44349. kBytes
   fftplans  :       1403. kBytes
   grid      :      18679. kBytes
   one-center:       4976. kBytes
   HF        :        194. kBytes
   wavefun   :       9372. kBytes
 
  
  
 General timing and accounting informations for this job:
 ========================================================
  
                  Total CPU time used (sec):     4188.419
                            User time (sec):     4046.719
                          System time (sec):      141.701
                         Elapsed time (sec):     4205.477
  
                   Maximum memory used (kb):      598276.
                   Average memory used (kb):           0.
  
                          Minor page faults:     22281466
                          Major page faults:           44
                 Voluntary context switches:        52897
