 vasp.5.4.4.18Apr17-6-g9f103f2a35 (build Jun 06 2017 17:32:29) complex          
  
 executed on      LLNL_Quartz_ifc date 2021.09.07  08:09:37
 running on  288 total cores
 distrk:  each k-point on  288 cores,    1 groups
 distr:  one band on NCORES_PER_BAND=   8 cores,   36 groups


--------------------------------------------------------------------------------------------------------


 INCAR:
 POTCAR:   PAW_PBE Ga_d 06Sep2000                 
 POTCAR:   PAW_PBE Ir 06Sep2000                   
 POTCAR:   PAW_PBE O 08Apr2002                    

 ----------------------------------------------------------------------------- 
|                                                                             |
|           W    W    AA    RRRRR   N    N  II  N    N   GGGG   !!!           |
|           W    W   A  A   R    R  NN   N  II  NN   N  G    G  !!!           |
|           W    W  A    A  R    R  N N  N  II  N N  N  G       !!!           |
|           W WW W  AAAAAA  RRRRR   N  N N  II  N  N N  G  GGG   !            |
|           WW  WW  A    A  R   R   N   NN  II  N   NN  G    G                |
|           W    W  A    A  R    R  N    N  II  N    N   GGGG   !!!           |
|                                                                             |
|      For optimal performance we recommend to set                            |
|        NCORE= 4 - approx SQRT( number of cores)                             |
|      NCORE specifies how many cores store one orbital (NPAR=cpu/NCORE).     |
|      This setting can  greatly improve the performance of VASP for DFT.     |
|      The default,   NCORE=1            might be grossly inefficient         |
|      on modern multi-core architectures or massively parallel machines.     |
|      Do your own testing !!!!                                               |
|      Unfortunately you need to use the default for GW and RPA calculations. |
|      (for HF NCORE is supported but not extensively tested yet)             |
|                                                                             |
 ----------------------------------------------------------------------------- 

 POTCAR:   PAW_PBE Ga_d 06Sep2000                 
   VRHFIN =Ga: s2p1                                                             
   LEXCH  = PE                                                                  
   EATOM  =  2149.0616 eV,  157.9516 Ry                                         
                                                                                
   TITEL  = PAW_PBE Ga_d 06Sep2000                                              
   LULTRA =        F    use ultrasoft PP ?                                      
   IUNSCR =        1    unscreen: 0-lin 1-nonlin 2-no                           
   RPACOR =    2.000    partial core radius                                     
   POMASS =   69.723; ZVAL   =   13.000    mass and valenz                      
   RCORE  =    2.300    outmost cutoff radius                                   
   RWIGS  =    2.300; RWIGS  =    1.217    wigner-seitz radius (au A)           
   ENMAX  =  282.697; ENMIN  =  212.022 eV                                      
   ICORE  =        3    local potential                                         
   LCOR   =        T    correct aug charges                                     
   LPAW   =        T    paw PP                                                  
   EAUG   =  490.690                                                            
   DEXC   =    -.001                                                            
   RMAX   =    2.742    core radius for proj-oper                               
   RAUG   =    1.300    factor for augmentation sphere                          
   RDEP   =    2.413    radius for radial grids                                 
   QCUT   =   -4.558; QGAM   =    9.117    optimization parameters              
                                                                                
   Description                                                                  
     l     E      TYP  RCUT    TYP  RCUT                                        
     2   .000     23  2.300                                                     
     2  -.400     23  2.300                                                     
     0   .000     23  2.300                                                     
     0   .000     23  2.300                                                     
     1   .000     23  2.300                                                     
     1   .000     23  2.300                                                     
     3  -.100      7  2.300                                                     
  local pseudopotential read in
  partial core-charges read in
  atomic valenz-charges read in
  non local Contribution for L=           2  read in
    real space projection operators read in
  non local Contribution for L=           2  read in
    real space projection operators read in
  non local Contribution for L=           0  read in
    real space projection operators read in
  non local Contribution for L=           0  read in
    real space projection operators read in
  non local Contribution for L=           1  read in
    real space projection operators read in
  non local Contribution for L=           1  read in
    real space projection operators read in
    PAW grid and wavefunctions read in
 
   number of l-projection  operators is LMAX  =           6
   number of lm-projection operators is LMMAX =          18
 
 POTCAR:   PAW_PBE Ir 06Sep2000                   
   VRHFIN =Ir: s1d8                                                             
   LEXCH  = PE                                                                  
   EATOM  =   560.2052 eV,   41.1739 Ry                                         
                                                                                
   TITEL  = PAW_PBE Ir 06Sep2000                                                
   LULTRA =        F    use ultrasoft PP ?                                      
   IUNSCR =        1    unscreen: 0-lin 1-nonlin 2-no                           
   RPACOR =    2.250    partial core radius                                     
   POMASS =  192.220; ZVAL   =    9.000    mass and valenz                      
   RCORE  =    2.600    outmost cutoff radius                                   
   RWIGS  =    2.690; RWIGS  =    1.423    wigner-seitz radius (au A)           
   ENMAX  =  210.870; ENMIN  =  158.153 eV                                      
   RCLOC  =    1.857    cutoff for local pot                                    
   LCOR   =        T    correct aug charges                                     
   LPAW   =        T    paw PP                                                  
   EAUG   =  318.962                                                            
   DEXC   =    -.027                                                            
   RMAX   =    3.175    core radius for proj-oper                               
   RAUG   =    1.300    factor for augmentation sphere                          
   RDEP   =    2.748    radius for radial grids                                 
   QCUT   =   -3.937; QGAM   =    7.874    optimization parameters              
                                                                                
   Description                                                                  
     l     E      TYP  RCUT    TYP  RCUT                                        
     2   .000     23  2.600                                                     
     2   .000     23  2.600                                                     
     0   .000     23  2.600                                                     
     0   .000     23  2.600                                                     
     1  -.200     23  2.600                                                     
     1  1.500     23  2.600                                                     
     3   .000      7   .000                                                     
  local pseudopotential read in
  partial core-charges read in
  atomic valenz-charges read in
  non local Contribution for L=           2  read in
    real space projection operators read in
  non local Contribution for L=           2  read in
    real space projection operators read in
  non local Contribution for L=           0  read in
    real space projection operators read in
  non local Contribution for L=           0  read in
    real space projection operators read in
  non local Contribution for L=           1  read in
    real space projection operators read in
  non local Contribution for L=           1  read in
    real space projection operators read in
    PAW grid and wavefunctions read in
 
   number of l-projection  operators is LMAX  =           6
   number of lm-projection operators is LMMAX =          18
 
 POTCAR:   PAW_PBE O 08Apr2002                    
   VRHFIN =O: s2p4                                                              
   LEXCH  = PE                                                                  
   EATOM  =   432.3788 eV,   31.7789 Ry                                         
                                                                                
   TITEL  = PAW_PBE O 08Apr2002                                                 
   LULTRA =        F    use ultrasoft PP ?                                      
   IUNSCR =        0    unscreen: 0-lin 1-nonlin 2-no                           
   RPACOR =     .000    partial core radius                                     
   POMASS =   16.000; ZVAL   =    6.000    mass and valenz                      
   RCORE  =    1.520    outmost cutoff radius                                   
   RWIGS  =    1.550; RWIGS  =     .820    wigner-seitz radius (au A)           
   ENMAX  =  400.000; ENMIN  =  300.000 eV                                      
   ICORE  =        2    local potential                                         
   LCOR   =        T    correct aug charges                                     
   LPAW   =        T    paw PP                                                  
   EAUG   =  605.392                                                            
   DEXC   =     .000                                                            
   RMAX   =    2.264    core radius for proj-oper                               
   RAUG   =    1.300    factor for augmentation sphere                          
   RDEP   =    1.550    radius for radial grids                                 
   QCUT   =   -5.520; QGAM   =   11.041    optimization parameters              
                                                                                
   Description                                                                  
     l     E      TYP  RCUT    TYP  RCUT                                        
     0   .000     23  1.200                                                     
     0  -.700     23  1.200                                                     
     1   .000     23  1.520                                                     
     1   .600     23  1.520                                                     
     2   .000      7  1.500                                                     
  local pseudopotential read in
  atomic valenz-charges read in
  non local Contribution for L=           0  read in
    real space projection operators read in
  non local Contribution for L=           0  read in
    real space projection operators read in
  non local Contribution for L=           1  read in
    real space projection operators read in
  non local Contribution for L=           1  read in
    real space projection operators read in
    PAW grid and wavefunctions read in
 
   number of l-projection  operators is LMAX  =           4
   number of lm-projection operators is LMMAX =           8
 
 Optimization of the real space projectors (new method)

 maximal supplied QI-value         = 16.25
 optimisation between [QCUT,QGAM] = [ 10.24, 20.48] = [ 29.35,117.42] Ry 
 Optimized for a Real-space Cutoff    1.38 Angstroem

   l    n(q)    QCUT    max X(q) W(low)/X(q) W(high)/X(q)  e(spline) 
   2      7    10.239     6.328    0.33E-04    0.68E-04    0.30E-07
   2      7    10.239     9.625    0.20E-03    0.23E-03    0.80E-07
   0      8    10.239     9.711    0.17E-04    0.17E-04    0.13E-07
   0      8    10.239    32.764    0.56E-04    0.14E-03    0.62E-07
   1      8    10.239     7.413    0.78E-04    0.28E-04    0.38E-07
   1      8    10.239    31.472    0.43E-03    0.30E-03    0.73E-07
 Optimization of the real space projectors (new method)

 maximal supplied QI-value         = 14.36
 optimisation between [QCUT,QGAM] = [ 10.20, 20.39] = [ 29.12,116.47] Ry 
 Optimized for a Real-space Cutoff    1.70 Angstroem

   l    n(q)    QCUT    max X(q) W(low)/X(q) W(high)/X(q)  e(spline) 
   2      9    10.197     3.989    0.32E-04    0.18E-04    0.62E-07
   2      9    10.197    41.237    0.35E-03    0.14E-03    0.40E-06
   0     10    10.197    14.164    0.17E-04    0.12E-05    0.12E-07
   0     10    10.197    44.257    0.49E-04    0.25E-04    0.27E-06
   1     10    10.197     7.849    0.10E-04    0.77E-05    0.25E-07
   1     10    10.197    11.007    0.35E-04    0.49E-04    0.91E-07
 Optimization of the real space projectors (new method)

 maximal supplied QI-value         = 24.76
 optimisation between [QCUT,QGAM] = [ 10.15, 20.30] = [ 28.85,115.39] Ry 
 Optimized for a Real-space Cutoff    1.30 Angstroem

   l    n(q)    QCUT    max X(q) W(low)/X(q) W(high)/X(q)  e(spline) 
   0      8    10.150     4.192    0.55E-04    0.58E-04    0.78E-07
   0      8    10.150     8.473    0.46E-03    0.68E-03    0.23E-06
   1      7    10.150     2.474    0.11E-03    0.93E-04    0.33E-07
   1      7    10.150     3.912    0.46E-03    0.50E-03    0.15E-06
 PAW_PBE Ga_d 06Sep2000                 :
 energy of atom  1       EATOM=-2149.0616
 kinetic energy error for atom=    0.0101 (will be added to EATOM!!)
 PAW_PBE Ir 06Sep2000                   :
 energy of atom  2       EATOM= -560.2052
 kinetic energy error for atom=    0.0041 (will be added to EATOM!!)
 PAW_PBE O 08Apr2002                    :
 energy of atom  3       EATOM= -432.3788
 kinetic energy error for atom=    0.1156 (will be added to EATOM!!)
 
 
 POSCAR: Ga Ir  O                                
  positions in direct lattice
  velocities in cartesian coordinates
 exchange correlation table for  LEXCH =        8
   RHO(1)=    0.500       N(1)  =     2000
   RHO(2)=  100.500       N(2)  =     4000
 


--------------------------------------------------------------------------------------------------------


 ion  position               nearest neighbor table
   1  0.090  1.000  0.396- 140 1.82  99 1.82 108 1.83 106 1.86
   2  0.411  0.625  0.605- 157 1.83  72 1.83  85 1.83 121 1.86
   3  0.589  0.625  0.896-  86 1.83  71 1.83 158 1.83 136 1.86
   4  0.160  0.625  0.655-  78 1.93 149 1.94  80 1.94 121 2.01  75 2.08 154 2.08
   5  0.840  0.625  0.844-  77 1.93 150 1.94  79 1.94 136 2.01  76 2.08 153 2.08
   6  0.910  0.500  0.604-  90 1.83  78 1.83 118 1.83  76 1.86
   7  0.090  0.500  0.895-  77 1.82 117 1.83  68 1.83  75 1.85
   8  0.841  0.375  0.844- 117 1.93  79 1.93 119 1.94  65 2.01  76 2.07 116 2.08
   9  0.911  0.250  0.604- 131 1.83  97 1.83 118 1.83 116 1.86
  10  0.089  0.250  0.897- 117 1.83  96 1.83 132 1.84  93 1.86
  11  0.840  0.625  0.344-  89 1.93 138 1.94  90 1.94  81 2.01  88 2.08 141 2.08
  12  0.660  1.000  0.657- 155 1.93 114 1.94 102 1.94  95 2.00 160 2.06 133 2.07
  13  0.159  0.626  0.155-  70 1.93 137 1.93  68 1.94  82 2.01 142 2.07  87 2.09
  14  0.087  0.250  0.399- 120 1.82 129 1.82 108 1.82 127 1.90
  15  0.910  0.250  0.103- 119 1.82 109 1.84 130 1.84 128 1.86
  16  0.841  0.375  0.344- 129 1.93  90 1.93 131 1.94  92 2.01  88 2.07 128 2.08
  17  0.156  0.378  0.153- 130 1.90  68 1.91 132 1.94  87 2.06 122 2.06 127 2.13  64 3.13
  18  0.592  0.378  0.397- 135 1.81  83 1.82  92 1.84 123 1.87
  19  0.412  0.376  0.102-  91 1.81  69 1.82 124 1.83 122 1.90
  20  0.660  0.250  0.155- 126 1.93 105 1.93 124 1.95 128 2.00 100 2.08  92 2.08
  21  0.411  0.625  0.104-  73 1.82 145 1.83  69 1.83  82 1.87
  22  0.341  0.504  0.344-  85 1.91  83 1.93 125 1.96  87 2.01  82 2.03 122 2.09  64 3.09
  23  0.590  0.626  0.396-  74 1.82 146 1.83  83 1.84  81 1.86
  24  0.341  1.000  0.844- 115 1.93 156 1.93 113 1.94  94 2.01 159 2.06 134 2.07
  25  0.412  0.125  0.606- 114 1.82  84 1.83 134 1.85 104 1.85
  26  0.589  0.125  0.896- 105 1.83 115 1.83  67 1.83 133 1.86
  27  0.909  0.999  0.103-  98 1.82 139 1.83 109 1.83 107 1.86
  28  0.841  0.125  0.344- 108 1.93 110 1.93 131 1.94 100 2.01 107 2.07 128 2.08
  29  0.156  0.122  0.153- 109 1.90 111 1.91 132 1.94 106 2.06 101 2.06 127 2.13  64 3.13
  30  0.592  0.122  0.397- 102 1.81 103 1.82 100 1.84 123 1.87
  31  0.412  0.124  0.102- 113 1.81 112 1.82 124 1.83 101 1.90
  32  0.341  0.996  0.343- 144 1.91 103 1.93 104 1.96 106 2.01 147 2.03 101 2.08  64 3.09
  33  0.660  1.000  0.156- 143 1.93 105 1.93 112 1.94 107 2.00 148 2.07 100 2.08
  34  0.090  0.500  0.396-  80 1.82  89 1.82 129 1.83  87 1.86
  35  0.660  0.501  0.156-  86 1.93 126 1.93  69 1.94  88 2.00  81 2.07  92 2.08
  36  0.661  0.250  0.657-  84 1.94 135 1.94 102 1.94 116 2.00 133 2.07  65 2.07
  37  0.909  0.501  0.103-  79 1.82  70 1.83 130 1.83  88 1.86
  38  0.412  0.375  0.606-  72 1.82  84 1.83 125 1.85  66 1.85
  39  0.589  0.375  0.896- 126 1.83  71 1.83  67 1.83  65 1.86
  40  0.159  0.376  0.657- 118 1.93  80 1.94 120 1.95  66 2.01  75 2.06  93 2.08
  41  0.660  0.501  0.657-  74 1.93  72 1.94 135 1.94  76 2.00 136 2.06  65 2.07
  42  0.341  0.501  0.844-  71 1.93  73 1.93  91 1.94  75 2.01 121 2.06  66 2.07
  43  0.090  1.000  0.895- 152 1.82  96 1.83 111 1.83  94 1.85
  44  0.910  0.000  0.604- 110 1.83 151 1.83  97 1.83  95 1.86
  45  0.841  0.125  0.844-  96 1.93  98 1.93 119 1.94 133 2.01  95 2.07 116 2.08
  46  0.159  0.125  0.657-  97 1.93  99 1.94 120 1.95 134 2.01  94 2.06  93 2.08
  47  0.340  0.250  0.844-  67 1.93 113 1.94  91 1.94  93 2.00  66 2.08 134 2.08
  48  0.088  0.750  0.396- 149 1.83 140 1.83  89 1.83 142 1.87
  49  0.911  0.750  0.104- 150 1.83 139 1.84  70 1.84 141 1.86
  50  0.840  0.875  0.344- 140 1.93 138 1.94 110 1.94 148 2.01 107 2.08 141 2.08
  51  0.159  0.874  0.155- 139 1.92 137 1.93 111 1.94 147 2.01 142 2.07 106 2.09
  52  0.590  0.875  0.396- 155 1.82 146 1.83 103 1.84 148 1.86
  53  0.411  0.875  0.104- 156 1.82 145 1.83 112 1.83 147 1.87
  54  0.340  0.750  0.345- 146 1.93  85 1.94 144 1.94 142 2.00 147 2.08  82 2.09
  55  0.660  0.750  0.155- 145 1.94 143 1.94  86 1.94 141 2.00 148 2.08  81 2.08
  56  0.089  0.750  0.895- 137 1.83  77 1.83 152 1.83 154 1.86
  57  0.912  0.750  0.604- 138 1.83 151 1.83  78 1.83 153 1.86
  58  0.840  0.875  0.844- 152 1.93 150 1.94  98 1.94 160 2.01  95 2.07 153 2.08
  59  0.160  0.875  0.655- 151 1.93 149 1.94  99 1.94 159 2.01  94 2.08 154 2.08
  60  0.589  0.875  0.896- 143 1.83 115 1.83 158 1.83 160 1.86
  61  0.411  0.875  0.605- 157 1.83 114 1.83 144 1.83 159 1.86
  62  0.340  0.750  0.845- 158 1.93  73 1.94 156 1.94 154 2.01 159 2.08 121 2.08
  63  0.660  0.750  0.655- 157 1.93 155 1.94  74 1.94 153 2.00 136 2.08 160 2.08
  64  0.341  0.250  0.338- 123 1.95 127 2.00 104 2.00 125 2.00 122 2.04 101 2.04  32 3.09  22 3.09
                            29 3.13  17 3.13
  65  0.672  0.375  0.781-  39 1.86   8 2.01  41 2.07  36 2.07
  66  0.328  0.375  0.720-  38 1.85  40 2.01  42 2.07  47 2.08
  67  0.503  0.250  0.873-  39 1.83  26 1.83  47 1.93
  68  0.165  0.501  0.052-   7 1.83  17 1.91  13 1.94
  69  0.497  0.500  0.128-  19 1.82  21 1.83  35 1.94
  70  0.997  0.624  0.128-  37 1.83  49 1.84  13 1.93
  71  0.503  0.500  0.872-  39 1.83   3 1.83  42 1.93
  72  0.497  0.500  0.627-  38 1.82   2 1.83  41 1.94
  73  0.336  0.624  0.947-  21 1.82  42 1.93  62 1.94
  74  0.664  0.624  0.553-  23 1.82  41 1.93  63 1.94
  75  0.173  0.500  0.780-   7 1.85  42 2.01  40 2.06   4 2.08
  76  0.828  0.500  0.720-   6 1.86  41 2.00   8 2.07   5 2.08
  77  0.003  0.624  0.872-   7 1.82  56 1.83   5 1.93
  78  0.997  0.624  0.627-   6 1.83  57 1.83   4 1.93
  79  0.835  0.500  0.947-  37 1.82   8 1.93   5 1.94
  80  0.165  0.500  0.553-  34 1.82  40 1.94   4 1.94
  81  0.672  0.625  0.281-  23 1.86  11 2.01  35 2.07  55 2.08
  82  0.328  0.625  0.219-  21 1.87  13 2.01  22 2.03  54 2.09
  83  0.503  0.500  0.372-  18 1.82  23 1.84  22 1.93
  84  0.497  0.250  0.626-  25 1.83  38 1.83  36 1.94
  85  0.336  0.625  0.448-   2 1.83  22 1.91  54 1.94
  86  0.664  0.624  0.053-   3 1.83  35 1.93  55 1.94
  87  0.173  0.500  0.280-  34 1.86  22 2.01  17 2.06  13 2.09
  88  0.827  0.500  0.220-  37 1.86  35 2.00  16 2.07  11 2.08
  89  0.003  0.624  0.372-  34 1.82  48 1.83  11 1.93
  90  0.835  0.500  0.447-   6 1.83  16 1.93  11 1.94
  91  0.335  0.376  0.947-  19 1.81  42 1.94  47 1.94
  92  0.672  0.375  0.281-  18 1.84  16 2.01  35 2.08  20 2.08
  93  0.173  0.250  0.781-  10 1.86  47 2.00  40 2.08  46 2.08
  94  0.173  0.000  0.780-  43 1.85  24 2.01  46 2.06  59 2.08
  95  0.828  0.000  0.720-  44 1.86  12 2.00  45 2.07  58 2.07
  96  0.003  0.124  0.873-  43 1.83  10 1.83  45 1.93
  97  0.997  0.124  0.628-  44 1.83   9 1.83  46 1.93
  98  0.835  0.000  0.947-  27 1.82  45 1.93  58 1.94
  99  0.165  0.000  0.553-   1 1.82  46 1.94  59 1.94
 100  0.672  0.125  0.281-  30 1.84  28 2.01  33 2.08  20 2.08
 101  0.328  0.123  0.220-  31 1.90  64 2.04  29 2.06  32 2.08
 102  0.664  0.125  0.553-  30 1.81  12 1.94  36 1.94
 103  0.503  1.000  0.372-  30 1.82  52 1.84  32 1.93
 104  0.337  0.123  0.447-  25 1.85  32 1.96  64 2.00
 105  0.663  0.125  0.053-  26 1.83  20 1.93  33 1.93
 106  0.173  0.001  0.280-   1 1.86  32 2.01  29 2.06  51 2.09
 107  0.827  0.000  0.220-  27 1.86  33 2.00  28 2.07  50 2.08
 108  0.003  0.124  0.372-  14 1.82   1 1.83  28 1.93
 109  0.996  0.124  0.128-  27 1.83  15 1.84  29 1.90
 110  0.835  0.000  0.447-  44 1.83  28 1.93  50 1.94
 111  0.165  1.000  0.052-  43 1.83  29 1.91  51 1.94
 112  0.497  1.000  0.128-  31 1.82  53 1.83  33 1.94
 113  0.335  0.124  0.947-  31 1.81  24 1.94  47 1.94
 114  0.497  0.000  0.627-  25 1.82  61 1.83  12 1.94
 115  0.503  0.000  0.872-  26 1.83  60 1.83  24 1.93
 116  0.828  0.250  0.719-   9 1.86  36 2.00  45 2.08   8 2.08
 117  0.003  0.376  0.873-   7 1.83  10 1.83   8 1.93
 118  0.997  0.376  0.628-   6 1.83   9 1.83  40 1.93
 119  0.836  0.250  0.947-  15 1.82   8 1.94  45 1.94
 120  0.165  0.250  0.554-  14 1.82  46 1.95  40 1.95
 121  0.328  0.625  0.719-   2 1.86   4 2.01  42 2.06  62 2.08
 122  0.328  0.377  0.220-  19 1.90  64 2.04  17 2.06  22 2.09
 123  0.505  0.250  0.374-  18 1.87  30 1.87  64 1.95
 124  0.497  0.250  0.130-  19 1.83  31 1.83  20 1.95
 125  0.337  0.377  0.447-  38 1.85  22 1.96  64 2.00
 126  0.663  0.376  0.053-  39 1.83  20 1.93  35 1.93
 127  0.173  0.250  0.282-  14 1.90  64 2.00  29 2.13  17 2.13
 128  0.828  0.250  0.219-  15 1.86  20 2.00  16 2.08  28 2.08
 129  0.003  0.376  0.372-  14 1.82  34 1.83  16 1.93
 130  0.996  0.376  0.128-  37 1.83  15 1.84  17 1.90
 131  0.837  0.250  0.447-   9 1.83  16 1.94  28 1.94
 132  0.164  0.250  0.055-  10 1.84  17 1.94  29 1.94
 133  0.672  0.125  0.781-  26 1.86  45 2.01  12 2.07  36 2.07
 134  0.328  0.125  0.720-  25 1.85  46 2.01  24 2.07  47 2.08
 135  0.664  0.376  0.553-  18 1.81  41 1.94  36 1.94
 136  0.672  0.625  0.781-   3 1.86   5 2.01  41 2.06  63 2.08
 137  0.164  0.750  0.052-  56 1.83  51 1.93  13 1.93
 138  0.837  0.750  0.447-  57 1.83  50 1.94  11 1.94
 139  0.997  0.876  0.128-  27 1.83  49 1.84  51 1.92
 140  0.003  0.876  0.372-   1 1.82  48 1.83  50 1.93
 141  0.828  0.750  0.219-  49 1.86  55 2.00  11 2.08  50 2.08
 142  0.172  0.750  0.281-  48 1.87  54 2.00  51 2.07  13 2.07
 143  0.664  0.876  0.053-  60 1.83  33 1.93  55 1.94
 144  0.336  0.875  0.448-  61 1.83  32 1.91  54 1.94
 145  0.497  0.750  0.128-  53 1.83  21 1.83  55 1.94
 146  0.502  0.750  0.372-  52 1.83  23 1.83  54 1.93
 147  0.328  0.875  0.219-  53 1.87  51 2.01  32 2.03  54 2.08
 148  0.672  0.876  0.281-  52 1.86  50 2.01  33 2.07  55 2.08
 149  0.164  0.750  0.552-  48 1.83  59 1.94   4 1.94
 150  0.836  0.750  0.947-  49 1.83  58 1.94   5 1.94
 151  0.997  0.876  0.627-  44 1.83  57 1.83  59 1.93
 152  0.003  0.876  0.872-  43 1.82  56 1.83  58 1.93
 153  0.828  0.750  0.719-  57 1.86  63 2.00   5 2.08  58 2.08
 154  0.172  0.750  0.781-  56 1.86  62 2.01  59 2.08   4 2.08
 155  0.664  0.876  0.553-  52 1.82  12 1.93  63 1.94
 156  0.336  0.876  0.947-  53 1.82  24 1.93  62 1.94
 157  0.498  0.750  0.628-  61 1.83   2 1.83  63 1.93
 158  0.503  0.750  0.872-  60 1.83   3 1.83  62 1.93
 159  0.328  0.876  0.719-  61 1.86  59 2.01  24 2.06  62 2.08
 160  0.672  0.876  0.781-  60 1.86  58 2.01  12 2.06  63 2.08
 
  LATTYP: Found a simple monoclinic cell.
 ALAT       =    14.6889751464
 B/A-ratio  =     0.8259161174
 C/A-ratio  =     1.5972413798
 COS(beta)  =    -0.9171837574
  
  Lattice vectors:
  
 A1 = ( -11.8609006218,   0.0000000000,  -8.6651617002)
 A2 = (   0.0000000000, -12.1318613217,   0.0000000000)
 A3 = (  11.8609006218,   0.0000000000,  20.2429474736)


Analysis of symmetry for initial positions (statically):
=====================================================================
 Subroutine PRICEL returns:
 Original cell was already a primitive cell.
 

 Routine SETGRP: Setting up the symmetry group for a 
 simple monoclinic supercell.


 Subroutine GETGRP returns: Found  1 space group operations
 (whereof  1 operations were pure point group operations)
 out of a pool of  4 trial point group operations.


The static configuration has the point symmetry C_1 .


Analysis of symmetry for dynamics (positions and initial velocities):
=====================================================================
 Subroutine PRICEL returns:
 Original cell was already a primitive cell.
 

 Routine SETGRP: Setting up the symmetry group for a 
 simple monoclinic supercell.


 Subroutine GETGRP returns: Found  1 space group operations
 (whereof  1 operations were pure point group operations)
 out of a pool of  4 trial point group operations.


The dynamic configuration has the point symmetry C_1 .


Analysis of structural, dynamic, and magnetic symmetry:
=====================================================================
 Subroutine PRICEL returns:
 Original cell was already a primitive cell.
 

 Routine SETGRP: Setting up the symmetry group for a 
 simple monoclinic supercell.


 Subroutine GETGRP returns: Found  1 space group operations
 (whereof  1 operations were pure point group operations)
 out of a pool of  4 trial point group operations.


The magnetic configuration has the point symmetry C_1 .


 Subroutine INISYM returns: Found  1 space group operations
 (whereof  1 operations are pure point group operations),
 and found     1 'primitive' translations

 
 
 KPOINTS: KPOINTS created by Atomic Simulation Env
  k-points in reciprocal lattice
Space group operators:
 irot       det(A)        alpha          n_x          n_y          n_z        tau_x        tau_y        tau_z
    1     1.000000     0.000000     1.000000     0.000000     0.000000     0.000000     0.000000     0.000000

 ----------------------------------------------------------------------------- 
|                                                                             |
|           W    W    AA    RRRRR   N    N  II  N    N   GGGG   !!!           |
|           W    W   A  A   R    R  NN   N  II  NN   N  G    G  !!!           |
|           W    W  A    A  R    R  N N  N  II  N N  N  G       !!!           |
|           W WW W  AAAAAA  RRRRR   N  N N  II  N  N N  G  GGG   !            |
|           WW  WW  A    A  R   R   N   NN  II  N   NN  G    G                |
|           W    W  A    A  R    R  N    N  II  N    N   GGGG   !!!           |
|                                                                             |
|      Your generating k-point grid is not commensurate to the symmetry       |
|      of the lattice.  This can cause   slow convergence with respect        |
|      to k-points for HF type calculations                                   |
|      suggested SOLUTIONS:                                                   |
|       ) if not already the case, use automatic k-point generation           |
|       ) shift your grid to Gamma (G) (e.g. required for hex or fcc lattice) |
|                                                                             |
 ----------------------------------------------------------------------------- 

 
 Subroutine IBZKPT_HF returns following result:
 ==============================================
 
 Found      2 k-points in 1st BZ
 the following      2 k-points will be used (e.g. in the exchange kernel)
 Following reciprocal coordinates:   # in IRBZ
  0.250000  0.250000  0.250000    0.50000000   1 t-inv F
 -0.250000 -0.250000 -0.250000    0.50000000   1 t-inv T


--------------------------------------------------------------------------------------------------------




 Dimension of arrays:
   k-points           NKPTS =      1   k-points in BZ     NKDIM =      2   number of bands    NBANDS=    936
   number of dos      NEDOS =    301   number of ions     NIONS =    160
   non local maximal  LDIM  =      6   non local SUM 2l+1 LMDIM =     18
   total plane-waves  NPLWV = 216000
   max r-space proj   IRMAX =   2708   max aug-charges    IRDMAX=   9574
   dimension x,y,z NGX =    60 NGY =   60 NGZ =   60
   dimension x,y,z NGXF=   120 NGYF=  120 NGZF=  120
   support grid    NGXF=   120 NGYF=  120 NGZF=  120
   ions per type =              63   1  96
   NGX,Y,Z   is equivalent  to a cutoff of   8.17,  8.22,  8.62 a.u.
   NGXF,Y,Z  is equivalent  to a cutoff of  16.33, 16.44, 17.23 a.u.

 SYSTEM =  unknown system                          
 POSCAR =  Ga Ir  O                                

 Startparameter for this run:
   NWRITE =      2    write-flag & timer
   PREC   = normal    normal or accurate (medium, high low for compatibility)
   ISTART =      1    job   : 0-new  1-cont  2-samecut
   ICHARG =      0    charge: 1-file 2-atom 10-const
   ISPIN  =      2    spin polarized calculation?
   LNONCOLLINEAR =      F non collinear calculations
   LSORBIT =      F    spin-orbit coupling
   INIWAV =      1    electr: 0-lowe 1-rand  2-diag
   LASPH  =      F    aspherical Exc in radial PAW
   METAGGA=      F    non-selfconsistent MetaGGA calc.

 Electronic Relaxation 1
   ENCUT  =  400.0 eV  29.40 Ry    5.42 a.u.  19.92 19.78 18.88*2*pi/ulx,y,z
   ENINI  =  400.0     initial cutoff
   ENAUG  =  605.4 eV  augmentation charge cutoff
   NELM   =     40;   NELMIN=  2; NELMDL=  0     # of ELM steps 
   EDIFF  = 0.1E-03   stopping-criterion for ELM
   LREAL  =      T    real-space projection
   NLSPLINE    = F    spline interpolate recip. space projectors
   LCOMPAT=      F    compatible to vasp.4.4
   GGA_COMPAT  = T    GGA compatible to vasp.4.4-vasp.4.6
   LMAXPAW     = -100 max onsite density
   LMAXMIX     =    2 max onsite mixed and CHGCAR
   VOSKOWN=      0    Vosko Wilk Nusair interpolation
   ROPT   =   -0.00050  -0.00050  -0.00050
 Ionic relaxation
   EDIFFG = 0.1E-02   stopping-criterion for IOM
   NSW    =     45    number of steps for IOM
   NBLOCK =      1;   KBLOCK =     45    inner block; outer block 
   IBRION =      2    ionic relax: 0-MD 1-quasi-New 2-CG
   NFREE  =      1    steps in history (QN), initial steepest desc. (CG)
   ISIF   =      0    stress and relaxation
   IWAVPR =     11    prediction:  0-non 1-charg 2-wave 3-comb
   ISYM   =      3    0-nonsym 1-usesym 2-fastsym
   LCORR  =      T    Harris-Foulkes like correction to forces

   POTIM  = 0.3500    time-step for ionic-motion
   TEIN   =    0.0    initial temperature
   TEBEG  =    0.0;   TEEND  =   0.0 temperature during run
   SMASS  =  -3.00    Nose mass-parameter (am)
   estimated Nose-frequenzy (Omega)   =  0.10E-29 period in steps =****** mass=  -0.341E-26a.u.
   SCALEE = 1.0000    scale energy and forces
   NPACO  =    256;   APACO  = 16.0  distance and # of slots for P.C.
   PSTRESS=    0.0 pullay stress

  Mass of Ions in am
   POMASS =  69.72192.22 16.00
  Ionic Valenz
   ZVAL   =  13.00  9.00  6.00
  Atomic Wigner-Seitz radii
   RWIGS  =  -1.00 -1.00 -1.00
  virtual crystal weights 
   VCA    =   1.00  1.00  1.00
   NELECT =    1403.0000    total number of electrons
   NUPDOWN=      -1.0000    fix difference up-down

 DOS related values:
   EMIN   =  10.00;   EMAX   =-10.00  energy-range for DOS
   EFERMI =   0.00
   ISMEAR =     0;   SIGMA  =   0.05  broadening in eV -4-tet -1-fermi 0-gaus

 Electronic relaxation 2 (details)
   IALGO  =     58    algorithm
   LDIAG  =      T    sub-space diagonalisation (order eigenvalues)
   LSUBROT=      F    optimize rotation matrix (better conditioning)
   TURBO    =      0    0=normal 1=particle mesh
   IRESTART =      0    0=no restart 2=restart with 2 vectors
   NREBOOT  =      0    no. of reboots
   NMIN     =      0    reboot dimension
   EREF     =   0.00    reference energy to select bands
   IMIX   =      4    mixing-type and parameters
     AMIX     =   0.40;   BMIX     =  1.00
     AMIX_MAG =   1.60;   BMIX_MAG =  1.00
     AMIN     =   0.10
     WC   =   100.;   INIMIX=   1;  MIXPRE=   1;  MAXMIX= -45

 Intra band minimization:
   WEIMIN = 0.0010     energy-eigenvalue tresh-hold
   EBREAK =  0.27E-07  absolut break condition
   DEPER  =   0.30     relativ break condition  

   TIME   =   0.40     timestep for ELM

  volume/ion in A,a.u.               =      10.41        70.27
  Fermi-wavevector in a.u.,A,eV,Ry     =   1.545980  2.921478 32.518658  2.390054
  Thomas-Fermi vector in A             =   2.651281
 
 Write flags
   LWAVE        =      T    write WAVECAR
   LDOWNSAMPLE  =      F    k-point downsampling of WAVECAR
   LCHARG       =      F    write CHGCAR
   LVTOT        =      F    write LOCPOT, total local potential
   LVHAR        =      T    write LOCPOT, Hartree potential only
   LELF         =      F    write electronic localiz. function (ELF)
   LORBIT       =     10    0 simple, 1 ext, 2 COOP (PROOUT), +10 PAW based schemes


 Dipole corrections
   LMONO  =      F    monopole corrections only (constant potential shift)
   LDIPOL =      F    correct potential (dipole corrections)
   IDIPOL =      0    1-x, 2-y, 3-z, 4-all directions 
   EPSILON=  1.0000000 bulk dielectric constant

 Exchange correlation treatment:
   GGA     =    --    GGA type
   LEXCH   =     8    internal setting for exchange type
   VOSKOWN=      0    Vosko Wilk Nusair interpolation
   EXXOEP  =     0    0=HF, 1=EXX-LHF (local Hartree Fock) 2=EXX OEP
   LHFCALC =     T    Hartree Fock is set to
   LSYMGRAD=     F    symmetrize gradient (conserves proper symmetry)
   PRECFOCK=fast      Normal, Fast or Accurate (Low or Medium for compatibility)
   LRHFCALC=     F    long range Hartree Fock
   LRSCOR  =     F    long range correlation only (use DFT for short range part)
   LTHOMAS =     F    Thomas Fermi screening in HF
   LMODELHF=     F    short range full HF, long range fraction AEXX
   ENCUT4O =  -1.0   cutoff for four orbital integrals eV
   LMAXFOCK=     4    L truncation for augmentation on plane wave grid
   LMAXFOCKAE=  -1    L truncation for all-electron charge restoration on plane wave grid
   NMAXFOCKAE=   1    number of basis functions for all-electron charge restoration
   LFOCKAEDFT=     F  apply the AE augmentation even for DFT
   NKREDX  =     1    reduce k-point grid by
   NKREDY  =     1    reduce k-point grid by
   NKREDZ  =     1    reduce k-point grid by
   SHIFTRED=     F    shift reduced grid of Gamma
   HFKIDENT=     F    idential grid for each k-point
   ODDONLY =     F    use only odd q-grid points
   EVENONLY=     F    use only even q-grid points
   HFALPHA =   -1.0000 decay constant for conv. correction
   MCALPHA =    0.0000 extent of test-charge in conv. correction in multipole expansion
   AEXX    =    0.3200 exact exchange contribution
   HFSCREEN=    0.2000 screening length (either q_TF or 0.3 A-1)
   HFSCREENC=   0.2000 screening length for correlation (either q_TF or 0.3 A-1)
   HFRCUT  =    0.0000 spherical cutoff for potential kernel
   ALDAX   =    0.6800 LDA exchange part
   AGGAX   =    0.6800 GGA exchange part
   ALDAC   =    1.0000 LDA correlation
   AGGAC   =    1.0000 GGA correlation
   ENCUTFOCK=  -1.0 apply spherical cutoff to Coloumb kernel
   NBANDSGWLOW=     1    first orbital included in HF term
   NBLOCK_FOCK=    64    blocking factor in FOCK_ACC
 Linear response parameters
   LEPSILON=     F    determine dielectric tensor
   LRPA    =     F    only Hartree local field effects (RPA)
   LNABLA  =     F    use nabla operator in PAW spheres
   LVEL    =     F    velocity operator in full k-point grid
   LINTERFAST=   F  fast interpolation
   KINTER  =     0    interpolate to denser k-point grid
   CSHIFT  =0.1000    complex shift for real part using Kramers Kronig
   OMEGAMAX=  -1.0    maximum frequency
   DEG_THRESHOLD= 0.2000000E-02 threshold for treating states as degnerate
   RTIME   =   -0.100 relaxation time in fs
  (WPLASMAI=    0.000 imaginary part of plasma frequency in eV, 0.658/RTIME)
   DFIELD  = 0.0000000 0.0000000 0.0000000 field for delta impulse in time
 
 Orbital magnetization related:
   ORBITALMAG=     F  switch on orbital magnetization
   LCHIMAG   =     F  perturbation theory with respect to B field
   DQ        =  0.001000  dq finite difference perturbation B field
   LLRAUG    =     F  two centre corrections for induced B field



--------------------------------------------------------------------------------------------------------


 conjugate gradient relaxation of ions
 charge density and potential will be updated during run
 spin polarized calculation
 Conjugate gradient for all bands (Freysoldt, et al. PRB 79, 241103 (2009))
 preconditioned conjugated gradient                                        
 perform sub-space diagonalisation
    before iterative eigenvector-optimisation
 modified Broyden-mixing scheme, WC =      100.0
 initial mixing is a Kerker type mixing with AMIX =  0.4000 and BMIX =      1.0000
 Hartree-type preconditioning will be used
 using additional bands          234
 real space projection scheme for non local part
 use partial core corrections
 no Harris-corrections to forces 
 use gradient corrections 
 use of overlap-Matrix (Vanderbilt PP)
 Gauss-broadening in eV      SIGMA  =   0.05


--------------------------------------------------------------------------------------------------------


  energy-cutoff  :      400.00
  volume of cell :     1665.98
      direct lattice vectors                 reciprocal lattice vectors
    11.860900622  0.000000000 -2.912624073     0.084310630  0.000000000  0.000000000
     0.000000000 12.131861322  0.000000000     0.000000000  0.082427583  0.000000000
     0.000000000  0.000000000 11.577785773     0.021210029  0.000000000  0.086372301

  length of vectors
    12.213285494 12.131861322 11.577785773     0.084310630  0.082427583  0.088938404


 
 old parameters found on file WAVECAR:
  energy-cutoff  :      400.00
  volume of cell :     1665.98
      direct lattice vectors                 reciprocal lattice vectors
    11.860900622  0.000000000 -2.912624073     0.084310630  0.000000000  0.000000000
     0.000000000 12.131861322  0.000000000     0.000000000  0.082427583  0.000000000
     0.000000000  0.000000000 11.577785773     0.021210029  0.000000000  0.086372301

  length of vectors

 
 k-points in units of 2pi/SCALE and weight: KPOINTS created by Atomic Simulation Env
   0.02638016  0.02060690  0.02159308       1.000
 
 k-points in reciprocal lattice and weights: KPOINTS created by Atomic Simulation Env
   0.25000000  0.25000000  0.25000000       1.000
 
 position of ions in fractional coordinates (direct lattice) 
   0.09002796  0.99968442  0.39633890
   0.41114591  0.62540126  0.60466557
   0.58920769  0.62511624  0.89589392
   0.15958637  0.62505577  0.65532196
   0.84047023  0.62508681  0.84421399
   0.91015357  0.50009903  0.60367961
   0.08975594  0.50041646  0.89534087
   0.84080354  0.37545538  0.84415898
   0.91137246  0.25007303  0.60413421
   0.08907449  0.25009999  0.89670868
   0.84045651  0.62505281  0.34439146
   0.66000685  0.99959606  0.65680951
   0.15905832  0.62568377  0.15516762
   0.08680341  0.25010305  0.39919712
   0.91021239  0.25008036  0.10339422
   0.84073456  0.37546450  0.34412101
   0.15597054  0.37799465  0.15287179
   0.59248380  0.37829146  0.39723770
   0.41226449  0.37571372  0.10191106
   0.66035301  0.25011165  0.15526139
   0.41099806  0.62543076  0.10357051
   0.34078944  0.50435579  0.34360010
   0.58972521  0.62567880  0.39606508
   0.34056456  0.99955568  0.84376672
   0.41206245  0.12490858  0.60643231
   0.58940038  0.12500475  0.89598963
   0.90925471  0.99948966  0.10343515
   0.84074308  0.12474345  0.34414205
   0.15598824  0.12219112  0.15287113
   0.59243470  0.12198983  0.39714970
   0.41232936  0.12448302  0.10194164
   0.34077506  0.99580067  0.34345046
   0.65990373  0.99955308  0.15582705
   0.09003964  0.50049514  0.39634506
   0.65989194  0.50064101  0.15584804
   0.66065914  0.25010448  0.65659631
   0.90926271  0.50066697  0.10345651
   0.41200185  0.37538709  0.60638203
   0.58948837  0.37532169  0.89601275
   0.15948678  0.37565738  0.65661432
   0.66001650  0.50061018  0.65683903
   0.34057942  0.50067716  0.84376418
   0.08973072  0.99972741  0.89533455
   0.91014358  0.00004439  0.60367816
   0.84080020  0.12474566  0.84418144
   0.15947552  0.12452555  0.65659712
   0.34011549  0.25013350  0.84443524
   0.08834715  0.75010463  0.39586966
   0.91120982  0.75007393  0.10384329
   0.84045602  0.87516135  0.34437284
   0.15901723  0.87449011  0.15514523
   0.58977887  0.87458160  0.39606615
   0.41094538  0.87480884  0.10353361
   0.34005021  0.75011785  0.34480666
   0.66010403  0.75011458  0.15511704
   0.08856237  0.75007146  0.89536989
   0.91156649  0.75007889  0.60399138
   0.84047042  0.87511475  0.84419324
   0.15956799  0.87515854  0.65534545
   0.58926441  0.87520517  0.89590137
   0.41105181  0.87489872  0.60463545
   0.34017315  0.75012457  0.84456230
   0.66017616  0.75012039  0.65524670
   0.34060768  0.25004524  0.33828326
   0.67230078  0.37529650  0.78054809
   0.32780417  0.37536538  0.71972240
   0.50265148  0.25021500  0.87270020
   0.16502139  0.50051375  0.05243229
   0.49724633  0.50033417  0.12842384
   0.99727227  0.62433704  0.12761529
   0.50277097  0.50002270  0.87217558
   0.49725468  0.50024165  0.62744354
   0.33587028  0.62447273  0.94723692
   0.66418245  0.62438415  0.55273318
   0.17260490  0.50001012  0.78031331
   0.82784043  0.49987061  0.71958176
   0.00283177  0.62444118  0.87222161
   0.99731340  0.62428674  0.62744508
   0.83537771  0.50005020  0.94690786
   0.16520410  0.49977539  0.55273590
   0.67246287  0.62467015  0.28061361
   0.32757455  0.62468761  0.21919195
   0.50289568  0.50043496  0.37212668
   0.49731474  0.25016691  0.62634195
   0.33563819  0.62511585  0.44779702
   0.66406624  0.62444113  0.05264079
   0.17263054  0.49953343  0.28018826
   0.82746227  0.49991352  0.21950788
   0.00282860  0.62436232  0.37193724
   0.83530750  0.49987350  0.44700442
   0.33536446  0.37577606  0.94712977
   0.67240717  0.37516607  0.28070143
   0.17257817  0.25012397  0.78148461
   0.17258827  0.00019590  0.78030903
   0.82783464  0.00029302  0.71957818
   0.00340314  0.12449347  0.87319917
   0.99732552  0.12448931  0.62761736
   0.83537364  0.00014224  0.94691116
   0.16521052  0.00039994  0.55272793
   0.67242176  0.12505329  0.28068347
   0.32823590  0.12303420  0.22009618
   0.66428858  0.12461454  0.55336545
   0.50289688  0.99979059  0.37211004
   0.33732801  0.12288239  0.44726810
   0.66336140  0.12459132  0.05304510
   0.17261665  0.00065182  0.28019429
   0.82746693  0.00024688  0.21951381
   0.00316879  0.12430582  0.37192801
   0.99622762  0.12438266  0.12794133
   0.83530537  0.00032654  0.44700330
   0.16498096  0.99963012  0.05242605
   0.49727093  0.99982730  0.12840384
   0.33542541  0.12447788  0.94712188
   0.49722890  0.00001397  0.62737808
   0.50275086  0.00023726  0.87217074
   0.82801061  0.25006648  0.71931016
   0.00339442  0.37567770  0.87319534
   0.99733202  0.37566269  0.62762216
   0.83633541  0.25014002  0.94683807
   0.16503481  0.25009420  0.55368098
   0.32766702  0.62466979  0.71932327
   0.32826025  0.37699984  0.22018636
   0.50486199  0.25017604  0.37381486
   0.49686582  0.25012606  0.13029530
   0.33725352  0.37744317  0.44735295
   0.66340894  0.37561948  0.05307026
   0.17266258  0.25003896  0.28201941
   0.82764182  0.25010121  0.21911202
   0.00316875  0.37589188  0.37191162
   0.99624333  0.37577984  0.12798898
   0.83706455  0.25012952  0.44696124
   0.16374678  0.25012899  0.05485399
   0.67225896  0.12494248  0.78055026
   0.32780258  0.12482780  0.71969490
   0.66436243  0.37559896  0.55341292
   0.67240080  0.62457103  0.78055435
   0.16377477  0.75010508  0.05243507
   0.83652920  0.75014313  0.44714521
   0.99725408  0.87581724  0.12761048
   0.00281767  0.87582979  0.37193753
   0.82769266  0.75008148  0.21896400
   0.17239863  0.75012290  0.28067384
   0.66413300  0.87576211  0.05263820
   0.33559833  0.87515740  0.44776612
   0.49742623  0.75015686  0.12789374
   0.50244738  0.75016080  0.37220334
   0.32756257  0.87545210  0.21916657
   0.67247465  0.87557125  0.28058887
   0.16374452  0.75015203  0.55248965
   0.83636287  0.75013394  0.94707855
   0.99730577  0.87587153  0.62744551
   0.00282320  0.87569961  0.87219569
   0.82772649  0.75008970  0.71900317
   0.17245283  0.75011522  0.78060981
   0.66423153  0.87582765  0.55272994
   0.33580751  0.87578479  0.94722749
   0.49755966  0.75019213  0.62753459
   0.50267547  0.75020025  0.87220418
   0.32765644  0.87554763  0.71934378
   0.67239909  0.87569437  0.78052890
 
 position of ions in cartesian coordinates  (Angst):
   1.06781274 12.12803278  4.32650926
   4.87656080  7.58728140  5.80317493
   6.98853381  7.58382353  8.65632744
   1.89283803  7.58308992  7.12236212
   9.96873392  7.58346645  7.32615487
  10.79524099  6.06713205  4.33833806
   1.06458630  6.07098307 10.10463952
   9.97268719  4.55497263  7.32454715
  10.80969812  3.03385126  4.34005109
   1.05650363  3.03417834 10.12246054
   9.96857119  7.58305406  1.53935667
   7.82827564 12.12696079  5.68204800
   1.88657490  7.59070877  1.33322035
   1.02956657  3.03421555  4.36899305
  10.79593866  3.03394022 -1.45403041
   9.97186909  4.55508329  1.53541560
   1.84995110  4.58577873  1.31563329
   7.02739142  4.58937947  2.87345040
   4.88982819  4.55810669 -0.02086707
   7.83238141  3.03431984 -0.12577692
   4.87480716  7.58763929  0.00203434
   4.04206972  6.11877450  2.98553685
   6.99467205  7.59064846  2.86790880
   4.03940237 12.12647085  8.77701378
   4.88743174  1.51537352  5.82096041
   6.99081934  1.51654024  8.65687420
  10.78457981 12.12566997 -1.45076718
   9.97197017  1.51337025  1.53563443
   1.85016100  1.48240574  1.31557404
   7.02680915  1.47996365  2.87257454
   4.89059760  1.51021078 -0.02070201
   4.04189912 12.08091565  2.98384620
   7.82705254 12.12643931 -0.11791926
   1.06795124  6.07193767  4.32654657
   7.82691267  6.07370726 -0.11764197
   7.83601244  3.03423281  5.67767974
  10.78467466  6.07402230 -1.45054321
   4.88671302  4.55414407  5.82055473
   6.99186296  4.55335064  8.65688570
   1.89165691  4.55742321  7.13761490
   7.82839010  6.07333330  5.68236166
   4.03957862  6.07414592  8.77694113
   1.06428717 12.12855428 10.10463976
  10.79512257  0.00053850  4.33835027
   9.97264757  1.51339710  7.32481701
   1.89152331  1.51072676  7.13744857
   4.03407601  3.03458490  8.78606169
   1.04787675  9.10016531  4.32597210
  10.80776913  9.09979292 -1.45173627
   9.96856530 10.61733610  1.53914257
   1.88608759 10.60919280  1.33308084
   6.99530855 10.61030265  2.86776489
   4.87418229 10.61305955  0.00176058
   4.03330174  9.10032571  3.00165926
   7.82942824  9.10028604 -0.12672305
   1.05042946  9.09976298 10.10845188
  10.81199955  9.09985302  4.33783232
   9.96873615 10.61677080  7.32591410
   1.89262005 10.61730200  7.12268761
   6.98920663 10.61786780  8.65624837
   4.87544471 10.61414996  5.80310035
   4.03475987  9.10040731  8.78736493
   7.83028382  9.10035655  5.66346093
   4.03991383  3.03351415  2.92450897
   7.97409269  4.55304508  7.07885915
   3.88805268  4.55388071  7.37802145
   5.96189929  3.03557365  8.63990120
   1.95730234  6.07216346  0.12640454
   5.89778931  6.06998476  0.03857208
  11.82854731  7.57437042 -1.42717669
   5.96331647  6.06620601  8.63347916
   5.89788833  6.06886236  5.81609099
   3.98372406  7.57601661  9.98864223
   7.87780204  7.57494188  4.46491260
   2.04724960  6.06605345  8.53156712
   9.81893308  6.06436092  5.91997548
   0.03358739  7.57563380 10.09014704
  11.82903510  7.57376017  4.35962571
   9.90833195  6.06653964  8.52995513
   1.95946937  6.06320566  5.91828046
   7.97601523  7.57841162  1.29025272
   3.88532916  7.57862341  1.58365589
   5.96479565  6.07120756  2.84365695
   5.89860067  3.03499029  5.80316202
   3.98097119  7.58381886  4.20691014
   7.87642368  7.57563318 -1.32471157
   2.04755363  6.06027030  2.74115179
   9.81444777  6.06488145  0.13132869
   0.03354970  7.57467710  4.29797101
   9.90749919  6.06439593  2.74238473
   3.97772456  4.55886308  9.98887499
   7.97535466  4.55146270  1.29143174
   2.04693248  3.03446931  8.54520609
   2.04705229  0.00237664  8.53156604
   9.81886442  0.00355491  5.91995092
   0.04036431  1.51033754 10.09980081
  11.82917884  1.51028706  4.36158499
   9.90828378  0.00172560  8.53000515
   1.95954559  0.00485203  5.91816940
   7.97552770  1.51712912  1.29118130
   3.89317343  1.49263379  1.59219866
   7.87906079  1.51180637  4.47192376
   5.96480998 12.12932081  2.84346072
   4.00101405  1.49079208  4.19586452
   7.86806365  1.51152463 -1.31797763
   2.04738890  0.00790784  2.74126201
   9.81450298  0.00299515  0.13138375
   0.03758468  1.50806097  4.29687333
  11.81615682  1.50899323 -1.42035922
   9.90747395  0.00396155  2.74237788
   1.95682279 12.12737402  0.12645008
   5.89808103 12.12976618  0.03826886
   3.97844745  1.51014838  9.98860607
   5.89758263  0.00016949  5.81540808
   5.96307801  0.00287837  8.63348174
   9.82095156  3.03377189  5.91633531
   0.04026087  4.55766981 10.09978195
  11.82925595  4.55748764  4.36162171
   9.91969114  3.03466409  8.52635773
   1.95746149  3.03410809  5.92971538
   3.88642596  7.57840723  7.37379993
   3.89346225  4.57370980  1.59317173
   5.98811785  3.03510108  2.85747514
   5.89327612  3.03449462  0.06134772
   4.00013044  4.57908821  4.19706396
   7.86862752  4.55696349 -1.31782480
   2.04793365  3.03343799  2.76225915
   9.81657738  3.03419319  0.12622251
   0.03758423  4.56026821  4.29668364
  11.81634318  4.55890892 -1.41985331
   9.92833941  3.03453664  2.73676713
   1.94218426  3.03453027  0.15815491
   7.97359674  1.51578487  7.07900611
   3.88803383  1.51439355  7.37770774
   7.87993676  4.55671451  4.47225826
   7.97527905  7.57720910  7.07864028
   1.94251625  9.10017075  0.13006765
   9.92198971  9.10063245  2.74045640
  11.82833159 10.62529332 -1.42717940
   0.03342013 10.62544558  4.29800619
   9.81718044  9.09988450  0.12436076
   2.04480299  9.10038697  2.74744919
   7.87721554 10.62462453 -1.32493591
   3.98049840 10.61728822  4.20666840
   5.89992304  9.10079904  0.03191075
   5.95947846  9.10084677  2.84585015
   3.88518705 10.62086353  1.58339695
   7.97615503 10.62230901  1.28993195
   1.94215742  9.10074036  5.91968065
   9.92001694  9.10052096  8.52906187
  11.82894466 10.62595199  4.35965292
   0.03348572 10.62386618 10.08987195
   9.81758161  9.09998428  5.91360862
   2.04544585  9.10029388  8.53544289
   7.87838414 10.62541954  4.46473206
   3.98297951 10.62489966  9.98871589
   5.90150572  9.10122686  5.81625684
   5.96218376  9.10132538  8.63408852
   3.88630046 10.62202240  7.37406817
   7.97525883 10.62380262  7.07835064
 


--------------------------------------------------------------------------------------------------------


 k-point  1 :   0.2500 0.2500 0.2500  plane waves:   30269

 maximum and minimum number of plane-waves per node :      3813     3744

 maximum number of plane-waves:     30269
 maximum index in each direction: 
   IXMAX=   19   IYMAX=   19   IZMAX=   18
   IXMIN=  -20   IYMIN=  -20   IZMIN=  -19


 real space projection operators:
  total allocation   :      19671.47 KBytes
  max/ min on nodes  :       2586.98       2315.69


 parallel 3D FFT for wavefunctions:
    minimum data exchange during FFTs selected (reduces bandwidth)
 parallel 3D FFT for charge:
    minimum data exchange during FFTs selected (reduces bandwidth)


 FFT grid for exact exchange (Hartree Fock) 
  NGX = 42; NGY = 42; NGZ = 40

 
 Radii for the augmentation spheres in the non-local exchange
 for species   1 augmentation radius   1.277 (default was   1.031)
       energy cutoff for augmentation   1600.0
 for species   2 augmentation radius   1.454 (default was   1.279)
       energy cutoff for augmentation   1600.0
 for species   3 augmentation radius   0.820 (default was   0.722)
       energy cutoff for augmentation   1600.0

 real space projection operators:
  total allocation   :       5318.95 KBytes
  max/ min on nodes  :        710.49        589.66

 Maximum index for augmentation-charges in exchange           75
  SETUP_FOCK is finished

 total amount of memory used by VASP MPI-rank0    59399. kBytes
=======================================================================

   base      :      30000. kBytes
   nonlr-proj:      12812. kBytes
   fftplans  :       1991. kBytes
   grid      :       3603. kBytes
   one-center:        622. kBytes
   HF        :        129. kBytes
   wavefun   :      10242. kBytes
 
     INWAV:  cpu time    4.9172: real time    4.9180
 Broyden mixing: mesh for mixing (old mesh)
   NGX = 39   NGY = 39   NGZ = 37
  (NGX  =120   NGY  =120   NGZ  =120)
  gives a total of  56277 points

 charge density for first step will be calculated from the start-wavefunctions


--------------------------------------------------------------------------------------------------------


 Maximum index for non-local projection operator          354
 Maximum index for augmentation-charges          168 (set IRDMAX)


--------------------------------------------------------------------------------------------------------


 initial charge from wavefunction
 First call to EWALD:  gamma=   0.150
 Maximum number of real-space cells 3x 3x 3
 Maximum number of reciprocal cells 3x 3x 3

    FEWALD:  cpu time    0.0051: real time    0.0051


--------------------------------------- Iteration      1(   1)  ---------------------------------------


    POTLOK:  cpu time    0.2516: real time    0.2523
    SETDIJ:  cpu time    0.2138: real time    0.2139
    TRIAL :  cpu time  121.7349: real time  121.8366
    CORREC:  cpu time  123.6284: real time  123.6489
    CHARGE:  cpu time    0.1255: real time    0.1261
    --------------------------------------------
      LOOP:  cpu time  245.9760: real time  246.1076

 eigenvalue-minimisations  :     0
 total energy-change (2. order) :-0.1518229E+04  (-0.6969674E-05)
 number of electron    1403.0003910 magnetization       0.9999995
 augmentation part      608.7889867 magnetization       0.4379438

 Free energy of the ion-electron system (eV)
  ---------------------------------------------------
  alpha Z        PSCENC =      9536.06362079
  Ewald energy   TEWEN  =   -118155.75820646
  -Hartree energ DENC   =    -44579.39800797
  -exchange      EXHF   =      5259.86719633
  -V(xc)+E(xc)   XCENC  =      4708.78787001
  PAW double counting   =    126929.18936725  -148453.06385667
  entropy T*S    EENTRO =        -0.00000000
  eigenvalues    EBANDS =    -13498.62581280
  atomic energy  EATOM  =    176734.70858493
  ---------------------------------------------------
  free energy    TOTEN  =     -1518.22924459 eV

  energy without entropy =    -1518.22924459  energy(sigma->0) =    -1518.22924459
  exchange ACFDT corr.  =         0.00000000  see jH, gK, PRB 81, 115126


--------------------------------------------------------------------------------------------------------




--------------------------------------- Iteration      1(   2)  ---------------------------------------


    POTLOK:  cpu time    0.0912: real time    0.0917
    SETDIJ:  cpu time    0.2154: real time    0.2155
    TRIAL :  cpu time  119.8802: real time  119.8998
    CORREC:  cpu time  119.3944: real time  119.4156
    EDDIAG:  cpu time  118.1253: real time  118.1475
    CHARGE:  cpu time    0.1267: real time    0.1267
    --------------------------------------------
      LOOP:  cpu time  357.8501: real time  357.9195

 eigenvalue-minimisations  :     0
 total energy-change (2. order) :-0.6957642E-05  (-0.4956253E-05)
 number of electron    1403.0003910 magnetization       0.9999995
 augmentation part      608.7889110 magnetization       0.4379427

 Free energy of the ion-electron system (eV)
  ---------------------------------------------------
  alpha Z        PSCENC =      9536.06362079
  Ewald energy   TEWEN  =   -118155.75820646
  -Hartree energ DENC   =    -44579.40675626
  -exchange      EXHF   =      5259.86718297
  -V(xc)+E(xc)   XCENC  =      4708.78818248
  PAW double counting   =    126929.19026091  -148453.07986623
  entropy T*S    EENTRO =        -0.00000000
  eigenvalues    EBANDS =    -13498.60257051
  atomic energy  EATOM  =    176734.70858493
  ---------------------------------------------------
  free energy    TOTEN  =     -1518.22925155 eV

  energy without entropy =    -1518.22925155  energy(sigma->0) =    -1518.22925155
  exchange ACFDT corr.  =         0.00000000  see jH, gK, PRB 81, 115126


--------------------------------------------------------------------------------------------------------


  average scaling for gradient   0.9762


 average (electrostatic) potential at core
  the test charge radii are     1.0314  1.2793  0.7215
  (the norm of the test charge is              1.0000)
       1 -20.0616       2 -20.0675       3 -20.0280       4 -19.9823       5 -19.9693
       6 -20.0077       7 -20.0520       8 -19.9944       9 -20.0613      10 -20.1262
      11 -19.9841      12 -19.9820      13 -20.0593      14 -20.2656      15 -20.1160
      16 -20.0241      17 -20.2258      18 -20.2816      19 -20.2597      20 -20.0847
      21 -20.0851      22 -20.1159      23 -20.0697      24 -19.9882      25 -20.2189
      26 -20.0647      27 -20.0514      28 -20.0253      29 -20.2240      30 -20.2839
      31 -20.2593      32 -20.1190      33 -19.9956      34 -20.0615      35 -19.9959
      36 -20.0646      37 -20.0517      38 -20.2113      39 -20.0630      40 -20.0197
      41 -19.9809      42 -19.9883      43 -20.0519      44 -20.0077      45 -19.9961
      46 -20.0211      47 -20.0652      48 -20.0560      49 -20.0513      50 -19.9826
      51 -20.0580      52 -20.0694      53 -20.0837      54 -20.0961      55 -20.0123
      56 -20.0454      57 -20.0242      58 -19.9684      59 -19.9807      60 -20.0268
      61 -20.0671      62 -20.0069      63 -19.9997      64 -50.0965      65 -63.6001
      66 -63.6490      67 -63.4684      68 -63.2314      69 -63.4981      70 -63.4352
      71 -63.4102      72 -63.4660      73 -63.1162      74 -63.0960      75 -63.5944
      76 -63.5599      77 -63.4100      78 -63.3890      79 -63.0890      80 -63.1019
      81 -63.5821      82 -63.6941      83 -63.5095      84 -63.5757      85 -63.2116
      86 -63.1064      87 -63.6597      88 -63.5934      89 -63.4230      90 -63.0977
      91 -63.2055      92 -63.6711      93 -63.6206      94 -63.5955      95 -63.5603
      96 -63.4422      97 -63.4215      98 -63.0899      99 -63.1027     100 -63.6724
     101 -64.3379     102 -63.2010     103 -63.5108     104 -63.8354     105 -63.1526
     106 -63.6589     107 -63.5932     108 -63.5190     109 -63.5404     110 -63.0976
     111 -63.2308     112 -63.4985     113 -63.2060     114 -63.4686     115 -63.4105
     116 -63.6067     117 -63.4424     118 -63.4207     119 -63.1339     120 -63.2204
     121 -63.5816     122 -64.3412     123 -64.5274     124 -63.6354     125 -63.8117
     126 -63.1523     127 -64.3811     128 -63.6353     129 -63.5181     130 -63.5408
     131 -63.1397     132 -63.3060     133 -63.6002     134 -63.6511     135 -63.2000
     136 -63.5682     137 -63.1483     138 -63.0948     139 -63.4348     140 -63.4223
     141 -63.5715     142 -63.6343     143 -63.1061     144 -63.2116     145 -63.4518
     146 -63.4607     147 -63.6958     148 -63.5822     149 -63.0974     150 -63.0913
     151 -63.3884     152 -63.4096     153 -63.5613     154 -63.5667     155 -63.0960
     156 -63.1156     157 -63.4342     158 -63.4077     159 -63.5814     160 -63.5683
 
 
 
 E-fermi :   2.0011     XC(G=0):  -8.8870     alpha+bet :-11.2919


 spin component 1

 k-point     1 :       0.2500    0.2500    0.2500
  band No.  band energies     occupation 
      1     -20.1070      1.00000
      2     -19.8770      1.00000
      3     -19.8012      1.00000
      4     -19.7793      1.00000
      5     -19.6462      1.00000
      6     -19.6089      1.00000
      7     -19.5875      1.00000
      8     -19.5457      1.00000
      9     -19.4114      1.00000
     10     -19.4038      1.00000
     11     -19.3416      1.00000
     12     -19.2857      1.00000
     13     -19.2653      1.00000
     14     -19.2421      1.00000
     15     -19.1915      1.00000
     16     -19.1524      1.00000
     17     -19.1465      1.00000
     18     -19.1114      1.00000
     19     -19.0835      1.00000
     20     -19.0479      1.00000
     21     -19.0236      1.00000
     22     -19.0049      1.00000
     23     -18.9854      1.00000
     24     -18.9721      1.00000
     25     -18.9444      1.00000
     26     -18.9376      1.00000
     27     -18.9262      1.00000
     28     -18.9057      1.00000
     29     -18.8852      1.00000
     30     -18.8738      1.00000
     31     -18.8621      1.00000
     32     -18.8478      1.00000
     33     -18.8371      1.00000
     34     -18.8243      1.00000
     35     -18.8052      1.00000
     36     -18.7906      1.00000
     37     -18.7770      1.00000
     38     -18.7673      1.00000
     39     -18.7538      1.00000
     40     -18.7390      1.00000
     41     -18.7293      1.00000
     42     -18.7028      1.00000
     43     -18.6888      1.00000
     44     -18.6683      1.00000
     45     -18.6514      1.00000
     46     -18.6405      1.00000
     47     -18.6249      1.00000
     48     -18.6181      1.00000
     49     -18.6040      1.00000
     50     -18.5968      1.00000
     51     -18.5877      1.00000
     52     -18.5758      1.00000
     53     -18.5726      1.00000
     54     -18.5636      1.00000
     55     -18.5436      1.00000
     56     -18.5356      1.00000
     57     -18.5234      1.00000
     58     -18.5165      1.00000
     59     -18.5119      1.00000
     60     -18.5063      1.00000
     61     -18.4780      1.00000
     62     -18.4712      1.00000
     63     -18.4668      1.00000
     64     -18.4601      1.00000
     65     -18.4528      1.00000
     66     -18.4328      1.00000
     67     -18.4124      1.00000
     68     -18.3992      1.00000
     69     -18.3883      1.00000
     70     -18.3718      1.00000
     71     -18.3583      1.00000
     72     -18.3515      1.00000
     73     -18.3437      1.00000
     74     -18.3230      1.00000
     75     -18.3119      1.00000
     76     -18.3049      1.00000
     77     -18.2931      1.00000
     78     -18.2903      1.00000
     79     -18.2830      1.00000
     80     -18.2694      1.00000
     81     -18.2568      1.00000
     82     -18.2412      1.00000
     83     -18.2288      1.00000
     84     -18.2254      1.00000
     85     -18.2235      1.00000
     86     -18.2110      1.00000
     87     -18.2059      1.00000
     88     -18.1956      1.00000
     89     -18.1919      1.00000
     90     -18.1883      1.00000
     91     -18.1836      1.00000
     92     -18.1611      1.00000
     93     -18.1501      1.00000
     94     -18.1449      1.00000
     95     -18.1285      1.00000
     96     -18.1045      1.00000
     97     -14.3216      1.00000
     98     -14.3017      1.00000
     99     -14.2862      1.00000
    100     -14.2748      1.00000
    101     -14.2633      1.00000
    102     -14.2483      1.00000
    103     -14.2416      1.00000
    104     -14.2370      1.00000
    105     -14.2215      1.00000
    106     -14.2191      1.00000
    107     -14.2143      1.00000
    108     -14.2001      1.00000
    109     -14.1972      1.00000
    110     -14.1940      1.00000
    111     -14.1882      1.00000
    112     -14.1847      1.00000
    113     -14.1807      1.00000
    114     -14.1751      1.00000
    115     -14.1730      1.00000
    116     -14.1678      1.00000
    117     -14.1661      1.00000
    118     -14.1638      1.00000
    119     -14.1589      1.00000
    120     -14.1573      1.00000
    121     -14.1510      1.00000
    122     -14.1487      1.00000
    123     -14.1434      1.00000
    124     -14.1409      1.00000
    125     -14.1362      1.00000
    126     -14.1349      1.00000
    127     -14.1318      1.00000
    128     -14.1307      1.00000
    129     -14.1290      1.00000
    130     -14.1245      1.00000
    131     -14.1225      1.00000
    132     -14.1188      1.00000
    133     -14.1141      1.00000
    134     -14.1108      1.00000
    135     -14.1095      1.00000
    136     -14.1081      1.00000
    137     -14.1058      1.00000
    138     -14.1024      1.00000
    139     -14.1017      1.00000
    140     -14.1004      1.00000
    141     -14.0971      1.00000
    142     -14.0953      1.00000
    143     -14.0924      1.00000
    144     -14.0888      1.00000
    145     -14.0855      1.00000
    146     -14.0828      1.00000
    147     -14.0814      1.00000
    148     -14.0786      1.00000
    149     -14.0771      1.00000
    150     -14.0757      1.00000
    151     -14.0728      1.00000
    152     -14.0693      1.00000
    153     -14.0684      1.00000
    154     -14.0669      1.00000
    155     -14.0646      1.00000
    156     -14.0633      1.00000
    157     -14.0610      1.00000
    158     -14.0600      1.00000
    159     -14.0582      1.00000
    160     -14.0557      1.00000
    161     -14.0530      1.00000
    162     -14.0503      1.00000
    163     -14.0470      1.00000
    164     -14.0469      1.00000
    165     -14.0447      1.00000
    166     -14.0432      1.00000
    167     -14.0408      1.00000
    168     -14.0402      1.00000
    169     -14.0379      1.00000
    170     -14.0354      1.00000
    171     -14.0335      1.00000
    172     -14.0318      1.00000
    173     -14.0302      1.00000
    174     -14.0274      1.00000
    175     -14.0262      1.00000
    176     -14.0243      1.00000
    177     -14.0221      1.00000
    178     -14.0209      1.00000
    179     -14.0186      1.00000
    180     -14.0163      1.00000
    181     -14.0140      1.00000
    182     -14.0126      1.00000
    183     -14.0101      1.00000
    184     -14.0081      1.00000
    185     -14.0077      1.00000
    186     -14.0060      1.00000
    187     -14.0030      1.00000
    188     -14.0017      1.00000
    189     -13.9993      1.00000
    190     -13.9958      1.00000
    191     -13.9931      1.00000
    192     -13.9881      1.00000
    193     -13.9861      1.00000
    194     -13.9812      1.00000
    195     -13.9803      1.00000
    196     -13.9784      1.00000
    197     -13.9741      1.00000
    198     -13.9678      1.00000
    199     -13.9637      1.00000
    200     -13.9621      1.00000
    201     -13.9605      1.00000
    202     -13.9578      1.00000
    203     -13.9559      1.00000
    204     -13.9536      1.00000
    205     -13.9498      1.00000
    206     -13.9473      1.00000
    207     -13.9431      1.00000
    208     -13.9368      1.00000
    209     -13.9357      1.00000
    210     -13.9322      1.00000
    211     -13.9311      1.00000
    212     -13.9290      1.00000
    213     -13.9247      1.00000
    214     -13.9226      1.00000
    215     -13.9191      1.00000
    216     -13.9181      1.00000
    217     -13.9151      1.00000
    218     -13.9131      1.00000
    219     -13.9115      1.00000
    220     -13.9087      1.00000
    221     -13.9062      1.00000
    222     -13.9027      1.00000
    223     -13.9014      1.00000
    224     -13.8992      1.00000
    225     -13.8983      1.00000
    226     -13.8960      1.00000
    227     -13.8948      1.00000
    228     -13.8929      1.00000
    229     -13.8915      1.00000
    230     -13.8896      1.00000
    231     -13.8876      1.00000
    232     -13.8863      1.00000
    233     -13.8839      1.00000
    234     -13.8812      1.00000
    235     -13.8793      1.00000
    236     -13.8787      1.00000
    237     -13.8762      1.00000
    238     -13.8747      1.00000
    239     -13.8724      1.00000
    240     -13.8708      1.00000
    241     -13.8692      1.00000
    242     -13.8655      1.00000
    243     -13.8642      1.00000
    244     -13.8623      1.00000
    245     -13.8607      1.00000
    246     -13.8585      1.00000
    247     -13.8563      1.00000
    248     -13.8544      1.00000
    249     -13.8528      1.00000
    250     -13.8514      1.00000
    251     -13.8497      1.00000
    252     -13.8488      1.00000
    253     -13.8476      1.00000
    254     -13.8447      1.00000
    255     -13.8419      1.00000
    256     -13.8400      1.00000
    257     -13.8379      1.00000
    258     -13.8368      1.00000
    259     -13.8334      1.00000
    260     -13.8315      1.00000
    261     -13.8295      1.00000
    262     -13.8269      1.00000
    263     -13.8252      1.00000
    264     -13.8232      1.00000
    265     -13.8216      1.00000
    266     -13.8194      1.00000
    267     -13.8164      1.00000
    268     -13.8147      1.00000
    269     -13.8129      1.00000
    270     -13.8097      1.00000
    271     -13.8089      1.00000
    272     -13.8064      1.00000
    273     -13.8049      1.00000
    274     -13.8033      1.00000
    275     -13.8006      1.00000
    276     -13.7986      1.00000
    277     -13.7975      1.00000
    278     -13.7948      1.00000
    279     -13.7926      1.00000
    280     -13.7907      1.00000
    281     -13.7875      1.00000
    282     -13.7848      1.00000
    283     -13.7836      1.00000
    284     -13.7771      1.00000
    285     -13.7762      1.00000
    286     -13.7748      1.00000
    287     -13.7713      1.00000
    288     -13.7695      1.00000
    289     -13.7673      1.00000
    290     -13.7642      1.00000
    291     -13.7620      1.00000
    292     -13.7600      1.00000
    293     -13.7587      1.00000
    294     -13.7562      1.00000
    295     -13.7543      1.00000
    296     -13.7519      1.00000
    297     -13.7495      1.00000
    298     -13.7488      1.00000
    299     -13.7468      1.00000
    300     -13.7447      1.00000
    301     -13.7423      1.00000
    302     -13.7414      1.00000
    303     -13.7392      1.00000
    304     -13.7363      1.00000
    305     -13.7336      1.00000
    306     -13.7329      1.00000
    307     -13.7306      1.00000
    308     -13.7283      1.00000
    309     -13.7260      1.00000
    310     -13.7249      1.00000
    311     -13.7212      1.00000
    312     -13.7188      1.00000
    313     -13.7167      1.00000
    314     -13.7131      1.00000
    315     -13.7102      1.00000
    316     -13.7078      1.00000
    317     -13.7057      1.00000
    318     -13.7041      1.00000
    319     -13.7021      1.00000
    320     -13.6998      1.00000
    321     -13.6976      1.00000
    322     -13.6951      1.00000
    323     -13.6942      1.00000
    324     -13.6924      1.00000
    325     -13.6907      1.00000
    326     -13.6879      1.00000
    327     -13.6862      1.00000
    328     -13.6853      1.00000
    329     -13.6826      1.00000
    330     -13.6815      1.00000
    331     -13.6795      1.00000
    332     -13.6775      1.00000
    333     -13.6738      1.00000
    334     -13.6712      1.00000
    335     -13.6694      1.00000
    336     -13.6679      1.00000
    337     -13.6650      1.00000
    338     -13.6624      1.00000
    339     -13.6593      1.00000
    340     -13.6577      1.00000
    341     -13.6536      1.00000
    342     -13.6498      1.00000
    343     -13.6475      1.00000
    344     -13.6445      1.00000
    345     -13.6431      1.00000
    346     -13.6397      1.00000
    347     -13.6313      1.00000
    348     -13.6307      1.00000
    349     -13.6225      1.00000
    350     -13.6177      1.00000
    351     -13.6042      1.00000
    352     -13.6007      1.00000
    353     -13.5945      1.00000
    354     -13.5888      1.00000
    355     -13.5840      1.00000
    356     -13.5757      1.00000
    357     -13.5559      1.00000
    358     -13.5508      1.00000
    359     -13.5444      1.00000
    360     -13.5229      1.00000
    361     -13.4995      1.00000
    362     -13.4848      1.00000
    363     -13.4760      1.00000
    364     -13.4628      1.00000
    365     -13.4288      1.00000
    366     -13.4179      1.00000
    367     -13.3946      1.00000
    368     -13.3786      1.00000
    369     -13.3659      1.00000
    370     -13.3623      1.00000
    371     -13.3518      1.00000
    372     -13.3275      1.00000
    373     -13.3212      1.00000
    374     -13.3106      1.00000
    375     -13.3014      1.00000
    376     -13.2899      1.00000
    377     -13.2758      1.00000
    378     -13.2582      1.00000
    379     -13.2434      1.00000
    380     -13.2413      1.00000
    381     -13.2276      1.00000
    382     -13.2062      1.00000
    383     -13.1975      1.00000
    384     -13.1872      1.00000
    385     -13.1646      1.00000
    386     -13.1483      1.00000
    387     -13.1311      1.00000
    388     -13.1190      1.00000
    389     -13.1040      1.00000
    390     -13.0901      1.00000
    391     -13.0592      1.00000
    392     -13.0444      1.00000
    393     -13.0266      1.00000
    394     -13.0112      1.00000
    395     -12.9964      1.00000
    396     -12.9856      1.00000
    397     -12.9729      1.00000
    398     -12.9628      1.00000
    399     -12.9539      1.00000
    400     -12.9262      1.00000
    401     -12.9121      1.00000
    402     -12.9007      1.00000
    403     -12.8928      1.00000
    404     -12.8786      1.00000
    405     -12.8660      1.00000
    406     -12.8529      1.00000
    407     -12.8440      1.00000
    408     -12.8123      1.00000
    409     -12.8011      1.00000
    410     -12.7949      1.00000
    411     -12.7543      1.00000
    412      -6.5652      1.00000
    413      -6.4339      1.00000
    414      -6.3800      1.00000
    415      -6.2858      1.00000
    416      -6.2018      1.00000
    417      -6.1272      1.00000
    418      -6.0748      1.00000
    419      -6.0189      1.00000
    420      -5.9741      1.00000
    421      -5.9538      1.00000
    422      -5.8824      1.00000
    423      -5.8464      1.00000
    424      -5.8124      1.00000
    425      -5.7679      1.00000
    426      -5.7422      1.00000
    427      -5.7285      1.00000
    428      -5.6853      1.00000
    429      -5.6498      1.00000
    430      -5.6289      1.00000
    431      -5.6025      1.00000
    432      -5.5879      1.00000
    433      -5.5722      1.00000
    434      -5.5556      1.00000
    435      -5.5310      1.00000
    436      -5.5120      1.00000
    437      -5.4689      1.00000
    438      -5.4536      1.00000
    439      -5.4102      1.00000
    440      -5.3534      1.00000
    441      -5.3366      1.00000
    442      -5.2959      1.00000
    443      -5.2672      1.00000
    444      -5.2521      1.00000
    445      -5.2168      1.00000
    446      -5.1389      1.00000
    447      -5.0846      1.00000
    448      -5.0650      1.00000
    449      -5.0252      1.00000
    450      -4.9796      1.00000
    451      -4.9322      1.00000
    452      -4.8915      1.00000
    453      -4.8466      1.00000
    454      -4.8036      1.00000
    455      -4.7743      1.00000
    456      -4.7157      1.00000
    457      -4.6735      1.00000
    458      -4.6331      1.00000
    459      -4.5531      1.00000
    460      -4.4975      1.00000
    461      -4.4438      1.00000
    462      -4.4102      1.00000
    463      -4.3739      1.00000
    464      -4.3562      1.00000
    465      -4.3443      1.00000
    466      -4.3146      1.00000
    467      -4.3083      1.00000
    468      -4.2867      1.00000
    469      -4.2346      1.00000
    470      -4.2136      1.00000
    471      -4.1438      1.00000
    472      -4.1333      1.00000
    473      -4.0824      1.00000
    474      -4.0334      1.00000
    475      -3.9861      1.00000
    476      -3.9019      1.00000
    477      -3.8725      1.00000
    478      -3.8340      1.00000
    479      -3.8029      1.00000
    480      -3.7897      1.00000
    481      -3.7469      1.00000
    482      -3.6914      1.00000
    483      -3.6672      1.00000
    484      -3.6420      1.00000
    485      -3.6094      1.00000
    486      -3.5665      1.00000
    487      -3.5507      1.00000
    488      -3.4771      1.00000
    489      -3.4602      1.00000
    490      -3.4426      1.00000
    491      -3.3632      1.00000
    492      -3.3542      1.00000
    493      -3.3246      1.00000
    494      -3.2917      1.00000
    495      -3.2728      1.00000
    496      -3.2522      1.00000
    497      -3.2294      1.00000
    498      -3.2075      1.00000
    499      -3.1862      1.00000
    500      -3.1746      1.00000
    501      -3.1647      1.00000
    502      -3.1345      1.00000
    503      -3.0886      1.00000
    504      -3.0369      1.00000
    505      -3.0279      1.00000
    506      -2.9990      1.00000
    507      -2.9197      1.00000
    508      -2.8893      1.00000
    509      -2.8794      1.00000
    510      -2.8714      1.00000
    511      -2.8264      1.00000
    512      -2.7964      1.00000
    513      -2.7638      1.00000
    514      -2.7496      1.00000
    515      -2.7140      1.00000
    516      -2.6993      1.00000
    517      -2.6698      1.00000
    518      -2.6405      1.00000
    519      -2.6244      1.00000
    520      -2.6034      1.00000
    521      -2.5671      1.00000
    522      -2.5421      1.00000
    523      -2.5094      1.00000
    524      -2.4842      1.00000
    525      -2.4699      1.00000
    526      -2.4368      1.00000
    527      -2.4107      1.00000
    528      -2.4069      1.00000
    529      -2.3825      1.00000
    530      -2.3657      1.00000
    531      -2.3354      1.00000
    532      -2.3045      1.00000
    533      -2.2786      1.00000
    534      -2.2545      1.00000
    535      -2.2304      1.00000
    536      -2.2085      1.00000
    537      -2.1909      1.00000
    538      -2.1846      1.00000
    539      -2.1317      1.00000
    540      -2.1158      1.00000
    541      -2.1124      1.00000
    542      -2.0963      1.00000
    543      -2.0687      1.00000
    544      -2.0592      1.00000
    545      -2.0518      1.00000
    546      -2.0357      1.00000
    547      -2.0195      1.00000
    548      -2.0094      1.00000
[...]
      1.95783      3.03413      5.93002        -0.000173      0.000527     -0.012360
      3.88631      7.57826      7.37414         0.001984     -0.002061     -0.001415
      3.89341      4.57372      1.59280        -0.002975     -0.003187      0.003382
      5.98860      3.03508      2.85769        -0.007572      0.000410      0.008100
      5.89315      3.03452      0.06141         0.000757     -0.000761      0.001964
      4.00011      4.57894      4.19671         0.001463      0.002614      0.009737
      7.86867      4.55689     -1.31780         0.000309     -0.002149      0.004225
      2.04773      3.03341      2.76194        -0.001132      0.000584     -0.000093
      9.81643      3.03417      0.12613        -0.003673     -0.000689      0.002287
      0.03738      4.56033      4.29643        -0.003640     -0.001713     -0.006566
     11.81651      4.55883     -1.42000        -0.006143     -0.005490     -0.003361
      9.92823      3.03454      2.73683         0.001987      0.000133      0.001806
      1.94176      3.03453      0.15814        -0.009127      0.000674     -0.003758
      7.97359      1.51577      7.07893        -0.002679     -0.001059     -0.002052
      3.88794      1.51450      7.37782         0.003711      0.002609     -0.006152
      7.88005      4.55666      4.47220         0.003031      0.000168      0.001194
      7.97521      7.57726      7.07886         0.001424      0.001393     -0.004803
      1.94259      9.10022      0.13013         0.004647      0.000602      0.009482
      9.92170      9.10064      2.74006        -0.000359     -0.000213      0.009527
     11.82779     10.62527     -1.42719         0.001169      0.004565     -0.001021
      0.03320     10.62576      4.29806         0.007158      0.001233      0.002345
      9.81704      9.09989      0.12468         0.006511      0.000214     -0.002299
      2.04505      9.10039      2.74779         0.005295     -0.000588      0.005981
      7.87728     10.62464     -1.32483        -0.001851      0.002560     -0.003021
      3.98064     10.61699      4.20659         0.001817     -0.000843     -0.000682
      5.90026      9.10076      0.03185        -0.007198     -0.000964     -0.001338
      5.95925      9.10084      2.84599         0.003657     -0.000910      0.005758
      3.88531     10.62093      1.58325        -0.000450      0.001873      0.004885
      7.97613     10.62245      1.28990        -0.002738      0.003819      0.005835
      1.94225      9.10075      5.92010         0.002891     -0.000141      0.001505
      9.92013      9.10055      8.52920         0.000722      0.000301     -0.005690
     11.82924     10.62594      4.35976         0.002537      0.000873      0.002133
      0.03351     10.62380     10.09001         0.000932      0.000008      0.002870
      9.81761      9.10001      5.91384         0.002108     -0.000417     -0.000581
      2.04555      9.10031      8.53570        -0.000301      0.000167      0.004741
      7.87841     10.62574      4.46455         0.005735      0.000811      0.008118
      3.98279     10.62479      9.98870        -0.001600      0.000365      0.003150
      5.90179      9.10125      5.81618        -0.004246     -0.002161     -0.001613
      5.96260      9.10133      8.63434         0.000228     -0.000481      0.004534
      3.88617     10.62216      7.37438         0.002791      0.001911     -0.002254
      7.97523     10.62374      7.07851         0.001046     -0.001669     -0.004905
 -----------------------------------------------------------------------------------
    total drift:                               -0.209868     -0.009921     -0.030507


--------------------------------------------------------------------------------------------------------



  FREE ENERGIE OF THE ION-ELECTRON SYSTEM (eV)
  ---------------------------------------------------
  free  energy   TOTEN  =     -1518.22948253 eV

  energy  without entropy=    -1518.22948253  energy(sigma->0) =    -1518.22948253
 
 d Force = 0.3230244E-05[ 0.842E-06, 0.562E-05]  d Energy = 0.2515051E-04-0.219E-04
 d Force =-0.7439776E-02[-0.750E-02,-0.738E-02]  d Ewald  =-0.7440424E-02 0.648E-06


--------------------------------------------------------------------------------------------------------


    POTLOK:  cpu time    0.2969: real time    0.2970


--------------------------------------------------------------------------------------------------------




--------------------------------------------------------------------------------------------------------


  
 reached required accuracy - stopping structural energy minimisation
 writing wavefunctions
     LOOP+:  cpu time 1002.9121: real time 1003.1862
    4ORBIT:  cpu time    0.0000: real time    0.0000
 


 total charge     
 
# of ion       s       p       d       tot
------------------------------------------
    1        0.754   1.012  10.307  12.073
    2        0.753   1.009  10.305  12.067
    3        0.753   1.007  10.304  12.063
    4        0.654   0.823  10.269  11.745
    5        0.654   0.824  10.269  11.747
    6        0.754   1.011  10.307  12.071
    7        0.754   1.014  10.308  12.076
    8        0.654   0.823  10.269  11.746
    9        0.752   1.004  10.301  12.058
   10        0.751   0.998  10.298  12.047
   11        0.654   0.823  10.269  11.746
   12        0.654   0.828  10.273  11.756
   13        0.655   0.825  10.270  11.749
   14        0.754   1.003  10.301  12.059
   15        0.753   1.005  10.303  12.061
   16        0.654   0.825  10.270  11.750
   17        0.662   0.828  10.269  11.759
   18        0.756   1.005  10.303  12.064
   19        0.755   1.007  10.304  12.066
   20        0.653   0.820  10.267  11.740
   21        0.753   1.009  10.305  12.067
   22        0.663   0.835  10.278  11.776
   23        0.754   1.009  10.304  12.067
   24        0.655   0.830  10.274  11.759
   25        0.753   1.006  10.303  12.062
   26        0.753   1.008  10.304  12.065
   27        0.754   1.013  10.308  12.076
   28        0.654   0.825  10.270  11.749
   29        0.662   0.828  10.269  11.759
   30        0.756   1.005  10.302  12.063
   31        0.755   1.007  10.304  12.066
   32        0.663   0.835  10.278  11.776
   33        0.655   0.830  10.274  11.759
   34        0.754   1.012  10.307  12.073
   35        0.655   0.830  10.274  11.759
   36        0.652   0.820  10.268  11.740
   37        0.754   1.013  10.308  12.076
   38        0.753   1.007  10.304  12.063
   39        0.753   1.008  10.304  12.065
   40        0.654   0.824  10.270  11.747
   41        0.654   0.829  10.274  11.757
   42        0.655   0.830  10.274  11.759
   43        0.754   1.014  10.308  12.076
   44        0.754   1.011  10.307  12.072
   45        0.654   0.823  10.269  11.746
   46        0.654   0.824  10.270  11.747
   47        0.654   0.821  10.268  11.742
   48        0.752   1.003  10.301  12.056
   49        0.752   1.003  10.301  12.056
   50        0.654   0.824  10.269  11.747
   51        0.655   0.825  10.270  11.750
   52        0.754   1.009  10.305  12.067
   53        0.753   1.009  10.305  12.068
   54        0.655   0.822  10.268  11.745
   55        0.653   0.819  10.266  11.738
   56        0.752   1.004  10.302  12.057
   57        0.752   1.001  10.300  12.053
   58        0.654   0.824  10.270  11.747
   59        0.654   0.823  10.269  11.746
   60        0.753   1.007  10.304  12.064
   61        0.753   1.009  10.306  12.068
   62        0.653   0.819  10.266  11.737
   63        0.653   0.819  10.266  11.737
   64        0.610   0.857   6.723   8.189
   65        1.584   3.571   0.000   5.155
   66        1.584   3.573   0.000   5.156
   67        1.577   3.608   0.000   5.185
   68        1.580   3.585   0.000   5.165
   69        1.578   3.614   0.000   5.192
   70        1.577   3.612   0.000   5.190
   71        1.578   3.613   0.000   5.191
   72        1.578   3.614   0.000   5.192
   73        1.580   3.582   0.000   5.162
   74        1.580   3.581   0.000   5.161
   75        1.584   3.575   0.000   5.159
   76        1.584   3.573   0.000   5.157
   77        1.577   3.613   0.000   5.190
   78        1.577   3.611   0.000   5.189
   79        1.580   3.583   0.000   5.163
   80        1.580   3.581   0.000   5.161
   81        1.584   3.570   0.000   5.154
   82        1.583   3.573   0.000   5.157
   83        1.578   3.613   0.000   5.191
   84        1.577   3.611   0.000   5.188
   85        1.580   3.586   0.000   5.166
   86        1.580   3.582   0.000   5.162
   87        1.584   3.570   0.000   5.154
   88        1.584   3.574   0.000   5.158
   89        1.577   3.612   0.000   5.189
   90        1.580   3.582   0.000   5.162
   91        1.580   3.581   0.000   5.161
   92        1.584   3.572   0.000   5.156
   93        1.583   3.568   0.000   5.151
   94        1.584   3.575   0.000   5.159
   95        1.584   3.573   0.000   5.157
   96        1.577   3.611   0.000   5.189
   97        1.577   3.612   0.000   5.189
   98        1.580   3.583   0.000   5.163
   99        1.580   3.581   0.000   5.161
  100        1.584   3.572   0.000   5.156
  101        1.584   3.552   0.000   5.137
  102        1.580   3.582   0.000   5.162
  103        1.578   3.613   0.000   5.191
  104        1.581   3.550   0.000   5.131
  105        1.579   3.582   0.000   5.161
  106        1.584   3.570   0.000   5.154
  107        1.584   3.574   0.000   5.158
  108        1.578   3.613   0.000   5.191
  109        1.577   3.617   0.000   5.194
  110        1.580   3.582   0.000   5.162
  111        1.580   3.585   0.000   5.165
  112        1.578   3.614   0.000   5.192
  113        1.580   3.581   0.000   5.161
  114        1.578   3.614   0.000   5.192
  115        1.578   3.613   0.000   5.191
  116        1.583   3.570   0.000   5.153
  117        1.578   3.611   0.000   5.189
  118        1.577   3.612   0.000   5.189
  119        1.579   3.581   0.000   5.160
  120        1.580   3.578   0.000   5.158
  121        1.584   3.572   0.000   5.155
  122        1.584   3.552   0.000   5.137
  123        1.579   3.578   0.000   5.157
  124        1.577   3.608   0.000   5.186
  125        1.581   3.551   0.000   5.132
  126        1.579   3.582   0.000   5.161
  127        1.585   3.545   0.000   5.130
  128        1.583   3.570   0.000   5.153
  129        1.578   3.613   0.000   5.191
  130        1.577   3.617   0.000   5.194
  131        1.579   3.579   0.000   5.158
  132        1.579   3.574   0.000   5.153
  133        1.584   3.571   0.000   5.154
  134        1.584   3.572   0.000   5.156
  135        1.580   3.583   0.000   5.162
  136        1.584   3.571   0.000   5.155
  137        1.579   3.582   0.000   5.161
  138        1.579   3.580   0.000   5.159
  139        1.577   3.612   0.000   5.190
  140        1.577   3.612   0.000   5.190
  141        1.583   3.568   0.000   5.151
  142        1.583   3.568   0.000   5.151
  143        1.580   3.582   0.000   5.162
  144        1.580   3.586   0.000   5.166
  145        1.577   3.611   0.000   5.188
  146        1.577   3.610   0.000   5.187
  147        1.583   3.574   0.000   5.157
  148        1.584   3.571   0.000   5.154
  149        1.579   3.580   0.000   5.159
  150        1.579   3.580   0.000   5.159
  151        1.577   3.612   0.000   5.189
  152        1.577   3.613   0.000   5.190
  153        1.583   3.568   0.000   5.151
  154        1.583   3.568   0.000   5.152
  155        1.580   3.582   0.000   5.161
  156        1.580   3.582   0.000   5.162
  157        1.577   3.611   0.000   5.188
  158        1.577   3.609   0.000   5.186
  159        1.584   3.572   0.000   5.156
  160        1.584   3.571   0.000   5.155
--------------------------------------------------
tot        196.740 403.000 654.8321254.572
 


 magnetization (x)
 
# of ion       s       p       d       tot
------------------------------------------
    1       -0.000   0.000   0.000   0.000
    2        0.000  -0.000   0.000   0.000
    3       -0.000  -0.000  -0.000  -0.000
    4       -0.000   0.000   0.000   0.000
    5       -0.000  -0.000   0.000  -0.000
    6       -0.000  -0.000   0.000  -0.000
    7       -0.000  -0.000   0.000  -0.000
    8       -0.000  -0.000  -0.000  -0.000
    9        0.000  -0.000  -0.000  -0.000
   10        0.000   0.000   0.000   0.000
   11       -0.000  -0.000   0.000  -0.000
   12        0.000  -0.000   0.000   0.000
   13       -0.000  -0.000   0.000  -0.000
   14        0.002   0.004   0.001   0.007
   15       -0.000   0.000   0.000   0.000
   16        0.000   0.000   0.000   0.000
   17        0.001   0.001   0.000   0.002
   18       -0.001  -0.002   0.001  -0.002
   19        0.000   0.000   0.000   0.001
   20       -0.000  -0.000  -0.000  -0.000
   21       -0.000  -0.000   0.000  -0.000
   22       -0.000  -0.000   0.000  -0.001
   23       -0.000  -0.000   0.000  -0.000
   24       -0.000  -0.000  -0.000  -0.000
   25       -0.000  -0.000   0.000  -0.000
   26        0.000  -0.000   0.000   0.000
   27       -0.000  -0.000  -0.000  -0.000
   28        0.000   0.000   0.000   0.000
   29        0.001   0.001   0.000   0.002
   30       -0.001  -0.002   0.001  -0.001
   31        0.000   0.000   0.000   0.001
   32       -0.000  -0.000   0.000  -0.001
   33        0.000  -0.000   0.000   0.000
   34       -0.000   0.000   0.000   0.000
   35        0.000  -0.000   0.000   0.000
   36       -0.000  -0.000  -0.000  -0.000
   37       -0.000  -0.000  -0.000  -0.000
   38       -0.000  -0.000   0.000  -0.000
   39        0.000  -0.000   0.000   0.000
   40       -0.000   0.000   0.000   0.000
   41        0.000  -0.000   0.000   0.000
   42       -0.000  -0.000  -0.000  -0.000
   43       -0.000  -0.000  -0.000  -0.000
   44       -0.000  -0.000  -0.000  -0.000
   45       -0.000  -0.000  -0.000  -0.000
   46       -0.000   0.000   0.000   0.000
   47        0.000  -0.000  -0.000  -0.000
   48        0.000  -0.000   0.000  -0.000
   49       -0.000  -0.000  -0.000  -0.000
   50       -0.000  -0.000   0.000  -0.000
   51       -0.000  -0.000   0.000  -0.000
   52       -0.000  -0.000   0.000  -0.000
   53        0.000  -0.000   0.000   0.000
   54       -0.000  -0.000  -0.000  -0.000
   55       -0.000  -0.000   0.000  -0.000
   56       -0.000  -0.000   0.000  -0.000
   57        0.000   0.000   0.000   0.000
   58       -0.000  -0.000   0.000  -0.000
   59        0.000   0.000   0.000   0.000
   60       -0.000  -0.000   0.000  -0.000
   61        0.000  -0.000   0.000   0.000
   62       -0.000  -0.000   0.000  -0.000
   63       -0.000  -0.000   0.000  -0.000
   64        0.008   0.007   0.737   0.751
   65        0.000   0.000   0.000   0.000
   66       -0.000  -0.000   0.000  -0.000
   67        0.000   0.000   0.000   0.000
   68       -0.000   0.000   0.000   0.000
   69        0.000   0.001   0.000   0.001
   70       -0.000  -0.000   0.000  -0.000
   71       -0.000   0.000   0.000   0.000
   72        0.000   0.001   0.000   0.001
   73        0.000   0.000   0.000   0.000
   74       -0.000   0.000   0.000   0.000
   75       -0.000  -0.000   0.000  -0.000
   76        0.000   0.000   0.000   0.000
   77       -0.000   0.000   0.000   0.000
   78        0.000   0.000   0.000   0.000
   79       -0.000   0.000   0.000   0.000
   80        0.000   0.000   0.000   0.000
   81       -0.000   0.000   0.000   0.000
   82       -0.000  -0.000   0.000  -0.000
   83       -0.000   0.001   0.000   0.001
   84        0.000   0.000   0.000   0.001
   85       -0.000  -0.000   0.000  -0.000
   86        0.000   0.000   0.000   0.000
   87        0.000   0.001   0.000   0.001
   88       -0.000   0.000   0.000   0.000
   89       -0.000   0.000   0.000   0.000
   90        0.000   0.000   0.000   0.000
   91       -0.000   0.000   0.000  -0.000
   92       -0.000   0.000   0.000   0.000
   93        0.000   0.000   0.000   0.000
   94       -0.000  -0.000   0.000  -0.000
   95        0.000   0.000   0.000   0.000
   96        0.000   0.000   0.000   0.000
   97        0.000   0.000   0.000   0.000
   98       -0.000   0.000   0.000  -0.000
   99        0.000   0.000   0.000   0.000
  100       -0.000   0.000   0.000   0.000
  101       -0.000   0.002   0.000   0.002
  102        0.000   0.002   0.000   0.002
  103       -0.000   0.001   0.000   0.001
  104        0.001   0.028   0.000   0.029
  105       -0.000  -0.000   0.000  -0.000
  106       -0.000   0.001   0.000   0.001
  107       -0.000   0.000   0.000   0.000
  108        0.000   0.002   0.000   0.002
  109       -0.000  -0.000   0.000  -0.000
  110        0.000   0.000   0.000   0.000
  111       -0.000   0.000   0.000   0.000
  112        0.000   0.000   0.000   0.000
  113       -0.000   0.000   0.000  -0.000
  114        0.000   0.001   0.000   0.001
  115       -0.000   0.000   0.000   0.000
  116        0.000   0.000   0.000   0.000
  117        0.000   0.000   0.000   0.000
  118        0.000   0.000   0.000   0.000
  119        0.000   0.000   0.000   0.000
  120        0.000   0.000   0.000   0.000
  121        0.000   0.000   0.000   0.000
  122       -0.000   0.003   0.000   0.002
  123        0.003   0.099   0.000   0.102
  124       -0.000   0.000   0.000   0.000
  125        0.001   0.024   0.000   0.025
  126       -0.000  -0.000   0.000  -0.000
  127        0.000   0.014   0.000   0.014
  128        0.000  -0.000   0.000  -0.000
  129        0.000   0.001   0.000   0.002
  130       -0.000  -0.000   0.000  -0.000
  131       -0.000   0.000   0.000   0.000
  132        0.000   0.002   0.000   0.003
  133        0.000   0.000   0.000   0.000
  134       -0.000  -0.000   0.000  -0.000
  135        0.000   0.002   0.000   0.002
  136       -0.000   0.000   0.000   0.000
  137       -0.000   0.000   0.000   0.000
  138       -0.000  -0.000   0.000  -0.000
  139       -0.000  -0.000   0.000  -0.000
  140       -0.000   0.000   0.000   0.000
  141       -0.000  -0.000   0.000  -0.000
  142       -0.000  -0.000   0.000  -0.000
  143        0.000   0.000   0.000   0.000
  144       -0.000  -0.000   0.000  -0.000
  145        0.000   0.000   0.000   0.000
  146       -0.000  -0.000   0.000  -0.000
  147       -0.000  -0.000   0.000  -0.000
  148       -0.000   0.000   0.000   0.000
  149       -0.000   0.000   0.000   0.000
  150       -0.000  -0.000   0.000  -0.000
  151        0.000   0.000   0.000   0.000
  152       -0.000   0.000   0.000   0.000
  153       -0.000   0.000   0.000  -0.000
  154        0.000   0.000   0.000   0.000
  155       -0.000   0.000   0.000   0.000
  156        0.000   0.000   0.000   0.000
  157        0.000   0.000   0.000   0.000
  158       -0.000  -0.000   0.000  -0.000
  159        0.000   0.000   0.000   0.000
  160       -0.000   0.000   0.000   0.000
--------------------------------------------------
tot          0.014   0.195   0.742   0.952
 

 total amount of memory used by VASP MPI-rank0    73286. kBytes
=======================================================================

   base      :      30000. kBytes
   nonlr-proj:      26699. kBytes
   fftplans  :       1991. kBytes
   grid      :       3603. kBytes
   one-center:        622. kBytes
   HF        :        129. kBytes
   wavefun   :      10242. kBytes
 
  
  
 General timing and accounting informations for this job:
 ========================================================
  
                  Total CPU time used (sec):     3284.222
                            User time (sec):     3089.557
                          System time (sec):      194.665
                         Elapsed time (sec):     3292.942
  
                   Maximum memory used (kb):      363508.
                   Average memory used (kb):           0.
  
                          Minor page faults:      1599801
                          Major page faults:           35
                 Voluntary context switches:        39848
