 vasp.5.4.4.18Apr17-6-g9f103f2a35 (build Jun 06 2017 17:32:29) complex          
  
 executed on      LLNL_Quartz_ifc date 2020.03.09  19:36:06
 running on  288 total cores
 distrk:  each k-point on  288 cores,    1 groups
 distr:  one band on NCORES_PER_BAND=   1 cores,  288 groups


--------------------------------------------------------------------------------------------------------


 INCAR:
 POTCAR:   PAW_PBE Ga_d 06Sep2000                 
 POTCAR:   PAW_PBE Cr_pv 07Sep2000                
 POTCAR:   PAW_PBE O 08Apr2002                    

 ----------------------------------------------------------------------------- 
|                                                                             |
|           W    W    AA    RRRRR   N    N  II  N    N   GGGG   !!!           |
|           W    W   A  A   R    R  NN   N  II  NN   N  G    G  !!!           |
|           W    W  A    A  R    R  N N  N  II  N N  N  G       !!!           |
|           W WW W  AAAAAA  RRRRR   N  N N  II  N  N N  G  GGG   !            |
|           WW  WW  A    A  R   R   N   NN  II  N   NN  G    G                |
|           W    W  A    A  R    R  N    N  II  N    N   GGGG   !!!           |
|                                                                             |
|      For optimal performance we recommend to set                            |
|        NCORE= 4 - approx SQRT( number of cores)                             |
|      NCORE specifies how many cores store one orbital (NPAR=cpu/NCORE).     |
|      This setting can  greatly improve the performance of VASP for DFT.     |
|      The default,   NCORE=1            might be grossly inefficient         |
|      on modern multi-core architectures or massively parallel machines.     |
|      Do your own testing !!!!                                               |
|      Unfortunately you need to use the default for GW and RPA calculations. |
|      (for HF NCORE is supported but not extensively tested yet)             |
|                                                                             |
 ----------------------------------------------------------------------------- 

 POTCAR:   PAW_PBE Ga_d 06Sep2000                 
   VRHFIN =Ga: s2p1                                                             
   LEXCH  = PE                                                                  
   EATOM  =  2149.0616 eV,  157.9516 Ry                                         
                                                                                
   TITEL  = PAW_PBE Ga_d 06Sep2000                                              
   LULTRA =        F    use ultrasoft PP ?                                      
   IUNSCR =        1    unscreen: 0-lin 1-nonlin 2-no                           
   RPACOR =    2.000    partial core radius                                     
   POMASS =   69.723; ZVAL   =   13.000    mass and valenz                      
   RCORE  =    2.300    outmost cutoff radius                                   
   RWIGS  =    2.300; RWIGS  =    1.217    wigner-seitz radius (au A)           
   ENMAX  =  282.697; ENMIN  =  212.022 eV                                      
   ICORE  =        3    local potential                                         
   LCOR   =        T    correct aug charges                                     
   LPAW   =        T    paw PP                                                  
   EAUG   =  490.690                                                            
   DEXC   =    -.001                                                            
   RMAX   =    2.742    core radius for proj-oper                               
   RAUG   =    1.300    factor for augmentation sphere                          
   RDEP   =    2.413    radius for radial grids                                 
   QCUT   =   -4.558; QGAM   =    9.117    optimization parameters              
                                                                                
   Description                                                                  
     l     E      TYP  RCUT    TYP  RCUT                                        
     2   .000     23  2.300                                                     
     2  -.400     23  2.300                                                     
     0   .000     23  2.300                                                     
     0   .000     23  2.300                                                     
     1   .000     23  2.300                                                     
     1   .000     23  2.300                                                     
     3  -.100      7  2.300                                                     
  local pseudopotential read in
  partial core-charges read in
  atomic valenz-charges read in
  non local Contribution for L=           2  read in
    real space projection operators read in
  non local Contribution for L=           2  read in
    real space projection operators read in
  non local Contribution for L=           0  read in
    real space projection operators read in
  non local Contribution for L=           0  read in
    real space projection operators read in
  non local Contribution for L=           1  read in
    real space projection operators read in
  non local Contribution for L=           1  read in
    real space projection operators read in
    PAW grid and wavefunctions read in
 
   number of l-projection  operators is LMAX  =           6
   number of lm-projection operators is LMMAX =          18
 
 POTCAR:   PAW_PBE Cr_pv 07Sep2000                
   VRHFIN =Cr : p6d5s1                                                          
   LEXCH  = PE                                                                  
   EATOM  =  1647.5667 eV,  121.0927 Ry                                         
                                                                                
   TITEL  = PAW_PBE Cr_pv 07Sep2000                                             
   LULTRA =        F    use ultrasoft PP ?                                      
   IUNSCR =        1    unscreen: 0-lin 1-nonlin 2-no                           
   RPACOR =    2.080    partial core radius                                     
   POMASS =   51.996; ZVAL   =   12.000    mass and valenz                      
   RCORE  =    2.300    outmost cutoff radius                                   
   RWIGS  =    2.500; RWIGS  =    1.323    wigner-seitz radius (au A)           
   ENMAX  =  265.683; ENMIN  =  199.262 eV                                      
   RCLOC  =    1.721    cutoff for local pot                                    
   LCOR   =        T    correct aug charges                                     
   LPAW   =        T    paw PP                                                  
   EAUG   =  519.424                                                            
   DEXC   =    -.003                                                            
   RMAX   =    2.829    core radius for proj-oper                               
   RAUG   =    1.300    factor for augmentation sphere                          
   RDEP   =    2.447    radius for radial grids                                 
   QCUT   =   -4.419; QGAM   =    8.838    optimization parameters              
                                                                                
   Description                                                                  
     l     E      TYP  RCUT    TYP  RCUT                                        
     1   .000     23  2.000                                                     
     1   .100     23  2.000                                                     
     2   .000     23  2.300                                                     
     2   .000     23  2.300                                                     
     0   .000     23  2.300                                                     
     0   .000     23  2.300                                                     
     3   .000      7   .000                                                     
  local pseudopotential read in
  partial core-charges read in
  atomic valenz-charges read in
  non local Contribution for L=           1  read in
    real space projection operators read in
  non local Contribution for L=           1  read in
    real space projection operators read in
  non local Contribution for L=           2  read in
    real space projection operators read in
  non local Contribution for L=           2  read in
    real space projection operators read in
  non local Contribution for L=           0  read in
    real space projection operators read in
  non local Contribution for L=           0  read in
    real space projection operators read in
    PAW grid and wavefunctions read in
 
   number of l-projection  operators is LMAX  =           6
   number of lm-projection operators is LMMAX =          18
 
 POTCAR:   PAW_PBE O 08Apr2002                    
   VRHFIN =O: s2p4                                                              
   LEXCH  = PE                                                                  
   EATOM  =   432.3788 eV,   31.7789 Ry                                         
                                                                                
   TITEL  = PAW_PBE O 08Apr2002                                                 
   LULTRA =        F    use ultrasoft PP ?                                      
   IUNSCR =        0    unscreen: 0-lin 1-nonlin 2-no                           
   RPACOR =     .000    partial core radius                                     
   POMASS =   16.000; ZVAL   =    6.000    mass and valenz                      
   RCORE  =    1.520    outmost cutoff radius                                   
   RWIGS  =    1.550; RWIGS  =     .820    wigner-seitz radius (au A)           
   ENMAX  =  400.000; ENMIN  =  300.000 eV                                      
   ICORE  =        2    local potential                                         
   LCOR   =        T    correct aug charges                                     
   LPAW   =        T    paw PP                                                  
   EAUG   =  605.392                                                            
   DEXC   =     .000                                                            
   RMAX   =    2.264    core radius for proj-oper                               
   RAUG   =    1.300    factor for augmentation sphere                          
   RDEP   =    1.550    radius for radial grids                                 
   QCUT   =   -5.520; QGAM   =   11.041    optimization parameters              
                                                                                
   Description                                                                  
     l     E      TYP  RCUT    TYP  RCUT                                        
     0   .000     23  1.200                                                     
     0  -.700     23  1.200                                                     
     1   .000     23  1.520                                                     
     1   .600     23  1.520                                                     
     2   .000      7  1.500                                                     
  local pseudopotential read in
  atomic valenz-charges read in
  non local Contribution for L=           0  read in
    real space projection operators read in
  non local Contribution for L=           0  read in
    real space projection operators read in
  non local Contribution for L=           1  read in
    real space projection operators read in
  non local Contribution for L=           1  read in
    real space projection operators read in
    PAW grid and wavefunctions read in
 
   number of l-projection  operators is LMAX  =           4
   number of lm-projection operators is LMMAX =           8
 
 Optimization of the real space projectors (new method)

 maximal supplied QI-value         = 16.25
 optimisation between [QCUT,QGAM] = [ 10.24, 20.48] = [ 29.35,117.42] Ry 
 Optimized for a Real-space Cutoff    1.38 Angstroem

   l    n(q)    QCUT    max X(q) W(low)/X(q) W(high)/X(q)  e(spline) 
   2      7    10.239     6.328    0.33E-04    0.68E-04    0.30E-07
   2      7    10.239     9.625    0.20E-03    0.23E-03    0.80E-07
   0      8    10.239     9.711    0.17E-04    0.17E-04    0.13E-07
   0      8    10.239    32.764    0.56E-04    0.14E-03    0.62E-07
   1      8    10.239     7.413    0.78E-04    0.28E-04    0.38E-07
   1      8    10.239    31.472    0.43E-03    0.30E-03    0.73E-07
 Optimization of the real space projectors (new method)

 maximal supplied QI-value         = 16.25
 optimisation between [QCUT,QGAM] = [ 10.24, 20.48] = [ 29.35,117.42] Ry 
 Optimized for a Real-space Cutoff    1.55 Angstroem

   l    n(q)    QCUT    max X(q) W(low)/X(q) W(high)/X(q)  e(spline) 
   1      9    10.239     3.725    0.12E-04    0.42E-05    0.32E-07
   1      9    10.239     4.899    0.39E-04    0.80E-04    0.16E-06
   2      9    10.239     4.046    0.87E-05    0.38E-04    0.55E-07
   2      9    10.239    59.627    0.23E-03    0.52E-03    0.25E-06
   0     10    10.239    23.955    0.21E-04    0.25E-05    0.94E-08
   0     10    10.239    65.137    0.37E-04    0.23E-05    0.66E-07
 Optimization of the real space projectors (new method)

 maximal supplied QI-value         = 24.76
 optimisation between [QCUT,QGAM] = [ 10.15, 20.30] = [ 28.85,115.39] Ry 
 Optimized for a Real-space Cutoff    1.30 Angstroem

   l    n(q)    QCUT    max X(q) W(low)/X(q) W(high)/X(q)  e(spline) 
   0      8    10.150     4.192    0.55E-04    0.58E-04    0.78E-07
   0      8    10.150     8.473    0.46E-03    0.68E-03    0.23E-06
   1      7    10.150     2.474    0.11E-03    0.93E-04    0.33E-07
   1      7    10.150     3.912    0.46E-03    0.50E-03    0.15E-06
 PAW_PBE Ga_d 06Sep2000                 :
 energy of atom  1       EATOM=-2149.0616
 kinetic energy error for atom=    0.0101 (will be added to EATOM!!)
 PAW_PBE Cr_pv 07Sep2000                :
 energy of atom  2       EATOM=-1647.5667
 kinetic energy error for atom=    0.0284 (will be added to EATOM!!)
 PAW_PBE O 08Apr2002                    :
 energy of atom  3       EATOM= -432.3788
 kinetic energy error for atom=    0.1156 (will be added to EATOM!!)
 
 
 POSCAR: Ga Cr  O                                
  positions in direct lattice
  velocities in cartesian coordinates
 exchange correlation table for  LEXCH =        8
   RHO(1)=    0.500       N(1)  =     2000
   RHO(2)=  100.500       N(2)  =     4000
 


--------------------------------------------------------------------------------------------------------


 ion  position               nearest neighbor table
   1  0.090  0.000  0.396-  99 1.82 108 1.83 140 1.83 106 1.86
   2  0.411  0.625  0.604-  85 1.83  72 1.83 157 1.83 121 1.86
   3  0.589  0.625  0.896-  86 1.83  71 1.83 158 1.83 136 1.86
   4  0.160  0.625  0.656-  78 1.93  80 1.94 149 1.94 121 2.01  75 2.07 154 2.08
   5  0.841  0.625  0.844-  77 1.93  79 1.94 150 1.94 136 2.01  76 2.07 153 2.08
   6  0.910  0.500  0.604-  90 1.83 118 1.83  78 1.83  76 1.86
   7  0.090  0.500  0.896-  68 1.83  77 1.83 117 1.83  75 1.86
   8  0.841  0.375  0.844- 117 1.93  79 1.94 119 1.94  65 2.01  76 2.07 116 2.08
   9  0.911  0.250  0.604- 131 1.83  97 1.83 118 1.83 116 1.86
  10  0.089  0.250  0.896- 132 1.83  96 1.83 117 1.83  93 1.86
  11  0.841  0.625  0.344-  89 1.93  90 1.94 138 1.94  81 2.01  88 2.07 141 2.08
  12  0.660  1.000  0.656- 114 1.93 102 1.93 155 1.93  95 2.01 160 2.07 133 2.07
  13  0.160  0.625  0.156-  70 1.93  68 1.94 137 1.94  82 2.01  87 2.07 142 2.08
  14  0.089  0.250  0.396- 120 1.83 129 1.83 108 1.83 127 1.86
  15  0.911  0.250  0.104- 119 1.83 130 1.83 109 1.83 128 1.86
  16  0.841  0.375  0.344- 129 1.93  90 1.94 131 1.94  92 2.01  88 2.07 128 2.08
  17  0.159  0.376  0.156- 130 1.93  68 1.93 132 1.94 122 2.02  87 2.07 127 2.08
  18  0.590  0.375  0.396- 135 1.83 123 1.83  83 1.83  92 1.86
  19  0.411  0.375  0.104-  91 1.83  69 1.83 124 1.83 122 1.86
  20  0.660  0.250  0.155- 124 1.94 126 1.94 105 1.94 128 2.01  92 2.08 100 2.08
  21  0.411  0.625  0.104-  73 1.83  69 1.83 145 1.83  82 1.86
  22  0.341  0.500  0.345- 125 1.93  85 1.93  83 1.93  87 2.01  82 2.07 122 2.07  64 3.04
  23  0.589  0.625  0.396-  74 1.83  83 1.83 146 1.83  81 1.86
  24  0.341  0.000  0.844- 115 1.93 156 1.93 113 1.94  94 2.01 134 2.07 159 2.07
  25  0.411  0.125  0.604- 104 1.82 114 1.83  84 1.83 134 1.86
  26  0.589  0.125  0.896- 105 1.83 115 1.83  67 1.83 133 1.86
  27  0.910  1.000  0.104-  98 1.82 139 1.83 109 1.83 107 1.86
  28  0.841  0.125  0.344- 108 1.93 110 1.94 131 1.94 100 2.01 107 2.07 128 2.08
  29  0.159  0.125  0.156- 109 1.93 111 1.93 132 1.94 101 2.02 106 2.07 127 2.08
  30  0.590  0.125  0.397- 102 1.83 123 1.83 103 1.83 100 1.86
  31  0.411  0.125  0.104- 113 1.83 112 1.83 124 1.83 101 1.86
  32  0.341  1.000  0.345- 104 1.93 144 1.93 103 1.93 106 2.01 147 2.07 101 2.07  64 3.04
  33  0.660  0.000  0.156- 112 1.93 143 1.93 105 1.93 107 2.01 100 2.07 148 2.07
  34  0.090  0.500  0.396-  80 1.82 129 1.83  89 1.83  87 1.86
  35  0.660  0.500  0.156-  69 1.93  86 1.93 126 1.93  88 2.01  92 2.07  81 2.07
  36  0.660  0.250  0.655-  84 1.93 135 1.94 102 1.94 116 2.01 133 2.08  65 2.08
  37  0.910  0.500  0.104-  79 1.82 130 1.83  70 1.83  88 1.86
  38  0.411  0.375  0.604- 125 1.82  72 1.83  84 1.83  66 1.86
  39  0.589  0.375  0.896- 126 1.83  71 1.83  67 1.83  65 1.86
  40  0.160  0.375  0.656- 118 1.93  80 1.94 120 1.94  66 2.01  75 2.07  93 2.08
  41  0.660  0.500  0.656-  72 1.93 135 1.93  74 1.93  76 2.01 136 2.07  65 2.07
  42  0.341  0.500  0.844-  71 1.93  91 1.93  73 1.93  75 2.01  66 2.07 121 2.07
  43  0.090  0.000  0.896- 111 1.83 152 1.83  96 1.83  94 1.86
  44  0.910  0.000  0.604- 110 1.83  97 1.83 151 1.83  95 1.86
  45  0.840  0.125  0.844-  96 1.93  98 1.94 119 1.94 133 2.01  95 2.07 116 2.08
  46  0.160  0.125  0.656-  97 1.93  99 1.94 120 1.94 134 2.01  94 2.07  93 2.08
  47  0.340  0.250  0.845-  67 1.93 113 1.94  91 1.94  93 2.01  66 2.08 134 2.08
  48  0.089  0.750  0.396- 149 1.83  89 1.83 140 1.83 142 1.86
  49  0.911  0.750  0.104- 150 1.83  70 1.83 139 1.83 141 1.86
  50  0.841  0.875  0.344- 140 1.93 110 1.94 138 1.94 148 2.01 107 2.07 141 2.08
  51  0.160  0.875  0.156- 139 1.93 111 1.94 137 1.94 147 2.01 106 2.07 142 2.08
  52  0.590  0.875  0.396- 155 1.83 103 1.83 146 1.83 148 1.86
  53  0.411  0.875  0.104- 156 1.83 112 1.83 145 1.83 147 1.86
  54  0.340  0.750  0.344- 146 1.93 144 1.94  85 1.94 142 2.01 147 2.08  82 2.08
  55  0.660  0.750  0.155- 145 1.93 143 1.94  86 1.94 141 2.01 148 2.08  81 2.08
  56  0.089  0.750  0.896- 137 1.83  77 1.83 152 1.83 154 1.86
  57  0.911  0.750  0.604- 138 1.83  78 1.83 151 1.83 153 1.86
  58  0.841  0.875  0.844- 152 1.93  98 1.94 150 1.94 160 2.01  95 2.07 153 2.08
  59  0.160  0.875  0.656- 151 1.93  99 1.94 149 1.94 159 2.01  94 2.07 154 2.08
  60  0.589  0.875  0.896- 143 1.83 115 1.83 158 1.83 160 1.86
  61  0.411  0.875  0.604- 144 1.83 114 1.83 157 1.83 159 1.86
  62  0.340  0.750  0.845- 158 1.93  73 1.94 156 1.94 154 2.01 159 2.08 121 2.08
  63  0.660  0.750  0.655- 157 1.93  74 1.94 155 1.94 153 2.01 160 2.08 136 2.08
  64  0.340  0.250  0.340- 123 1.96 104 1.97 125 1.97 127 2.00 101 2.04 122 2.04  32 3.04  22 3.04

  65  0.673  0.376  0.781-  39 1.86   8 2.01  41 2.07  36 2.08
  66  0.328  0.375  0.719-  38 1.86  40 2.01  42 2.07  47 2.08
  67  0.503  0.250  0.872-  39 1.83  26 1.83  47 1.93
  68  0.164  0.500  0.053-   7 1.83  17 1.93  13 1.94
  69  0.497  0.500  0.128-  19 1.83  21 1.83  35 1.93
  70  0.997  0.624  0.128-  37 1.83  49 1.83  13 1.93
  71  0.503  0.500  0.872-  39 1.83   3 1.83  42 1.93
  72  0.497  0.500  0.628-   2 1.83  38 1.83  41 1.93
  73  0.336  0.625  0.947-  21 1.83  42 1.93  62 1.94
  74  0.664  0.625  0.553-  23 1.83  41 1.93  63 1.94
  75  0.173  0.500  0.781-   7 1.86  42 2.01   4 2.07  40 2.07
  76  0.828  0.500  0.720-   6 1.86  41 2.01   5 2.07   8 2.07
  77  0.003  0.624  0.872-   7 1.83  56 1.83   5 1.93
  78  0.997  0.624  0.628-   6 1.83  57 1.83   4 1.93
  79  0.836  0.500  0.947-  37 1.82   5 1.94   8 1.94
  80  0.164  0.500  0.553-  34 1.82  40 1.94   4 1.94
  81  0.673  0.625  0.281-  23 1.86  11 2.01  35 2.07  55 2.08
  82  0.328  0.625  0.219-  21 1.86  13 2.01  22 2.07  54 2.08
  83  0.503  0.500  0.372-  23 1.83  18 1.83  22 1.93
  84  0.497  0.250  0.628-  38 1.83  25 1.83  36 1.93
  85  0.336  0.625  0.447-   2 1.83  22 1.93  54 1.94
  86  0.664  0.625  0.053-   3 1.83  35 1.93  55 1.94
  87  0.173  0.500  0.280-  34 1.86  22 2.01  13 2.07  17 2.07
  88  0.828  0.500  0.219-  37 1.86  35 2.01  11 2.07  16 2.07
  89  0.003  0.624  0.372-  34 1.83  48 1.83  11 1.93
  90  0.836  0.500  0.447-   6 1.83  11 1.94  16 1.94
  91  0.336  0.376  0.947-  19 1.83  42 1.93  47 1.94
  92  0.673  0.376  0.281-  18 1.86  16 2.01  35 2.07  20 2.08
  93  0.172  0.250  0.781-  10 1.86  47 2.01  46 2.08  40 2.08
  94  0.172  0.000  0.781-  43 1.86  24 2.01  59 2.07  46 2.07
  95  0.828  1.000  0.720-  44 1.86  12 2.01  58 2.07  45 2.07
  96  0.003  0.124  0.872-  43 1.83  10 1.83  45 1.93
  97  0.997  0.124  0.628-  44 1.83   9 1.83  46 1.93
  98  0.836  0.000  0.947-  27 1.82  58 1.94  45 1.94
  99  0.164  0.000  0.553-   1 1.82  46 1.94  59 1.94
 100  0.673  0.125  0.281-  30 1.86  28 2.01  33 2.07  20 2.08
 101  0.328  0.125  0.220-  31 1.86  29 2.02  64 2.04  32 2.07
 102  0.665  0.124  0.553-  30 1.83  12 1.93  36 1.94
 103  0.503  0.000  0.372-  52 1.83  30 1.83  32 1.93
 104  0.336  0.124  0.447-  25 1.82  32 1.93  64 1.97
 105  0.664  0.125  0.053-  26 1.83  33 1.93  20 1.94
 106  0.172  0.000  0.280-   1 1.86  32 2.01  29 2.07  51 2.07
 107  0.828  0.000  0.219-  27 1.86  33 2.01  28 2.07  50 2.07
 108  0.003  0.124  0.372-   1 1.83  14 1.83  28 1.93
 109  0.997  0.124  0.128-  27 1.83  15 1.83  29 1.93
 110  0.836  0.000  0.447-  44 1.83  50 1.94  28 1.94
 111  0.164  0.000  0.053-  43 1.83  29 1.93  51 1.94
 112  0.497  0.000  0.128-  31 1.83  53 1.83  33 1.93
 113  0.336  0.124  0.947-  31 1.83  24 1.94  47 1.94
 114  0.497  0.000  0.628-  61 1.83  25 1.83  12 1.93
 115  0.503  0.000  0.872-  60 1.83  26 1.83  24 1.93
 116  0.828  0.250  0.719-   9 1.86  36 2.01  45 2.08   8 2.08
 117  0.003  0.376  0.872-   7 1.83  10 1.83   8 1.93
 118  0.997  0.376  0.628-   6 1.83   9 1.83  40 1.93
 119  0.837  0.250  0.947-  15 1.83   8 1.94  45 1.94
 120  0.164  0.250  0.553-  14 1.83  40 1.94  46 1.94
 121  0.328  0.625  0.719-   2 1.86   4 2.01  42 2.07  62 2.08
 122  0.328  0.375  0.220-  19 1.86  17 2.02  64 2.04  22 2.07
 123  0.504  0.250  0.374-  18 1.83  30 1.83  64 1.96
 124  0.497  0.250  0.128-  19 1.83  31 1.83  20 1.94
 125  0.336  0.376  0.447-  38 1.82  22 1.93  64 1.97
 126  0.664  0.376  0.053-  39 1.83  35 1.93  20 1.94
 127  0.171  0.250  0.281-  14 1.86  64 2.00  17 2.08  29 2.08
 128  0.828  0.250  0.219-  15 1.86  20 2.01  16 2.08  28 2.08
 129  0.003  0.376  0.372-  34 1.83  14 1.83  16 1.93
 130  0.997  0.376  0.128-  37 1.83  15 1.83  17 1.93
 131  0.837  0.250  0.447-   9 1.83  16 1.94  28 1.94
 132  0.164  0.250  0.053-  10 1.83  29 1.94  17 1.94
 133  0.673  0.125  0.781-  26 1.86  45 2.01  12 2.07  36 2.08
 134  0.328  0.125  0.719-  25 1.86  46 2.01  24 2.07  47 2.08
 135  0.665  0.376  0.553-  18 1.83  41 1.93  36 1.94
 136  0.673  0.625  0.781-   3 1.86   5 2.01  41 2.07  63 2.08
 137  0.164  0.750  0.053-  56 1.83  13 1.94  51 1.94
 138  0.836  0.750  0.447-  57 1.83  50 1.94  11 1.94
 139  0.997  0.876  0.128-  27 1.83  49 1.83  51 1.93
 140  0.003  0.876  0.372-   1 1.83  48 1.83  50 1.93
 141  0.828  0.750  0.219-  49 1.86  55 2.01  50 2.08  11 2.08
 142  0.172  0.750  0.281-  48 1.86  54 2.01  51 2.08  13 2.08
 143  0.664  0.876  0.053-  60 1.83  33 1.93  55 1.94
 144  0.336  0.876  0.447-  61 1.83  32 1.93  54 1.94
 145  0.497  0.750  0.128-  53 1.83  21 1.83  55 1.93
 146  0.503  0.750  0.372-  52 1.83  23 1.83  54 1.93
 147  0.328  0.876  0.219-  53 1.86  51 2.01  32 2.07  54 2.08
 148  0.673  0.876  0.281-  52 1.86  50 2.01  33 2.07  55 2.08
 149  0.164  0.750  0.553-  48 1.83  59 1.94   4 1.94
 150  0.836  0.750  0.947-  49 1.83  58 1.94   5 1.94
 151  0.997  0.876  0.628-  44 1.83  57 1.83  59 1.93
 152  0.003  0.876  0.872-  43 1.83  56 1.83  58 1.93
 153  0.828  0.750  0.719-  57 1.86  63 2.01   5 2.08  58 2.08
 154  0.172  0.750  0.781-  56 1.86  62 2.01  59 2.08   4 2.08
 155  0.664  0.876  0.553-  52 1.83  12 1.93  63 1.94
 156  0.336  0.876  0.947-  53 1.83  24 1.93  62 1.94
 157  0.497  0.750  0.628-  61 1.83   2 1.83  63 1.93
 158  0.503  0.750  0.872-  60 1.83   3 1.83  62 1.93
 159  0.328  0.875  0.719-  61 1.86  59 2.01  24 2.07  62 2.08
 160  0.673  0.875  0.781-  60 1.86  58 2.01  12 2.07  63 2.08
 
  LATTYP: Found a simple monoclinic cell.
 ALAT       =    14.6889751464
 B/A-ratio  =     0.8259161174
 C/A-ratio  =     1.5972413798
 COS(beta)  =    -0.9171837574
  
  Lattice vectors:
  
 A1 = ( -11.8609006218,   0.0000000000,  -8.6651617002)
 A2 = (   0.0000000000, -12.1318613217,   0.0000000000)
 A3 = (  11.8609006218,   0.0000000000,  20.2429474736)


Analysis of symmetry for initial positions (statically):
=====================================================================
 Subroutine PRICEL returns:
 Original cell was already a primitive cell.
 

 Routine SETGRP: Setting up the symmetry group for a 
 simple monoclinic supercell.


 Subroutine GETGRP returns: Found  1 space group operations
 (whereof  1 operations were pure point group operations)
 out of a pool of  4 trial point group operations.


The static configuration has the point symmetry C_1 .


Analysis of symmetry for dynamics (positions and initial velocities):
=====================================================================
 Subroutine PRICEL returns:
 Original cell was already a primitive cell.
 

 Routine SETGRP: Setting up the symmetry group for a 
 simple monoclinic supercell.


 Subroutine GETGRP returns: Found  1 space group operations
 (whereof  1 operations were pure point group operations)
 out of a pool of  4 trial point group operations.


The dynamic configuration has the point symmetry C_1 .


Analysis of structural, dynamic, and magnetic symmetry:
=====================================================================
 Subroutine PRICEL returns:
 Original cell was already a primitive cell.
 

 Routine SETGRP: Setting up the symmetry group for a 
 simple monoclinic supercell.


 Subroutine GETGRP returns: Found  1 space group operations
 (whereof  1 operations were pure point group operations)
 out of a pool of  4 trial point group operations.


The magnetic configuration has the point symmetry C_1 .


 Subroutine INISYM returns: Found  1 space group operations
 (whereof  1 operations are pure point group operations),
 and found     1 'primitive' translations

 
 
 KPOINTS: KPOINTS created by Atomic Simulation Env
  k-points in reciprocal lattice
Space group operators:
 irot       det(A)        alpha          n_x          n_y          n_z        tau_x        tau_y        tau_z
    1     1.000000     0.000000     1.000000     0.000000     0.000000     0.000000     0.000000     0.000000

 ----------------------------------------------------------------------------- 
|                                                                             |
|           W    W    AA    RRRRR   N    N  II  N    N   GGGG   !!!           |
|           W    W   A  A   R    R  NN   N  II  NN   N  G    G  !!!           |
|           W    W  A    A  R    R  N N  N  II  N N  N  G       !!!           |
|           W WW W  AAAAAA  RRRRR   N  N N  II  N  N N  G  GGG   !            |
|           WW  WW  A    A  R   R   N   NN  II  N   NN  G    G                |
|           W    W  A    A  R    R  N    N  II  N    N   GGGG   !!!           |
|                                                                             |
|      Your generating k-point grid is not commensurate to the symmetry       |
|      of the lattice.  This can cause   slow convergence with respect        |
|      to k-points for HF type calculations                                   |
|      suggested SOLUTIONS:                                                   |
|       ) if not already the case, use automatic k-point generation           |
|       ) shift your grid to Gamma (G) (e.g. required for hex or fcc lattice) |
|                                                                             |
 ----------------------------------------------------------------------------- 

 
 Subroutine IBZKPT_HF returns following result:
 ==============================================
 
 Found      2 k-points in 1st BZ
 the following      2 k-points will be used (e.g. in the exchange kernel)
 Following reciprocal coordinates:   # in IRBZ
  0.250000  0.250000  0.250000    0.50000000   1 t-inv F
 -0.250000 -0.250000 -0.250000    0.50000000   1 t-inv T


--------------------------------------------------------------------------------------------------------




 Dimension of arrays:
   k-points           NKPTS =      1   k-points in BZ     NKDIM =      2   number of bands    NBANDS=   1152
   number of dos      NEDOS =    301   number of ions     NIONS =    160
   non local maximal  LDIM  =      6   non local SUM 2l+1 LMDIM =     18
   total plane-waves  NPLWV = 216000
   max r-space proj   IRMAX =   2087   max aug-charges    IRDMAX=   5112
   dimension x,y,z NGX =    60 NGY =   60 NGZ =   60
   dimension x,y,z NGXF=   120 NGYF=  120 NGZF=  120
   support grid    NGXF=   120 NGYF=  120 NGZF=  120
   ions per type =              63   1  96
   NGX,Y,Z   is equivalent  to a cutoff of   8.17,  8.22,  8.62 a.u.
   NGXF,Y,Z  is equivalent  to a cutoff of  16.33, 16.44, 17.23 a.u.

 SYSTEM =  unknown system                          
 POSCAR =  Ga Cr  O                                

 Startparameter for this run:
   NWRITE =      2    write-flag & timer
   PREC   = normal    normal or accurate (medium, high low for compatibility)
   ISTART =      1    job   : 0-new  1-cont  2-samecut
   ICHARG =      0    charge: 1-file 2-atom 10-const
   ISPIN  =      2    spin polarized calculation?
   LNONCOLLINEAR =      F non collinear calculations
   LSORBIT =      F    spin-orbit coupling
   INIWAV =      1    electr: 0-lowe 1-rand  2-diag
   LASPH  =      T    aspherical Exc in radial PAW
   METAGGA=      F    non-selfconsistent MetaGGA calc.

 Electronic Relaxation 1
   ENCUT  =  400.0 eV  29.40 Ry    5.42 a.u.  19.92 19.78 18.88*2*pi/ulx,y,z
   ENINI  =  400.0     initial cutoff
   ENAUG  =  605.4 eV  augmentation charge cutoff
   NELM   =     40;   NELMIN=  2; NELMDL=  0     # of ELM steps 
   EDIFF  = 0.1E-03   stopping-criterion for ELM
   LREAL  =      T    real-space projection
   NLSPLINE    = F    spline interpolate recip. space projectors
   LCOMPAT=      F    compatible to vasp.4.4
   GGA_COMPAT  = T    GGA compatible to vasp.4.4-vasp.4.6
   LMAXPAW     = -100 max onsite density
   LMAXMIX     =    2 max onsite mixed and CHGCAR
   VOSKOWN=      0    Vosko Wilk Nusair interpolation
   ROPT   =   -0.00050  -0.00050  -0.00050
 Ionic relaxation
   EDIFFG = 0.1E-02   stopping-criterion for IOM
   NSW    =     45    number of steps for IOM
   NBLOCK =      1;   KBLOCK =     45    inner block; outer block 
   IBRION =      2    ionic relax: 0-MD 1-quasi-New 2-CG
   NFREE  =      1    steps in history (QN), initial steepest desc. (CG)
   ISIF   =      0    stress and relaxation
   IWAVPR =     11    prediction:  0-non 1-charg 2-wave 3-comb
   ISYM   =      3    0-nonsym 1-usesym 2-fastsym
   LCORR  =      T    Harris-Foulkes like correction to forces

   POTIM  = 0.3500    time-step for ionic-motion
   TEIN   =    0.0    initial temperature
   TEBEG  =    0.0;   TEEND  =   0.0 temperature during run
   SMASS  =  -3.00    Nose mass-parameter (am)
   estimated Nose-frequenzy (Omega)   =  0.10E-29 period in steps =****** mass=  -0.341E-26a.u.
   SCALEE = 1.0000    scale energy and forces
   NPACO  =    256;   APACO  = 16.0  distance and # of slots for P.C.
   PSTRESS=    0.0 pullay stress

  Mass of Ions in am
   POMASS =  69.72 52.00 16.00
  Ionic Valenz
   ZVAL   =  13.00 12.00  6.00
  Atomic Wigner-Seitz radii
   RWIGS  =  -1.00 -1.00 -1.00
  virtual crystal weights 
   VCA    =   1.00  1.00  1.00
   NELECT =    1407.0000    total number of electrons
   NUPDOWN=      -1.0000    fix difference up-down

 DOS related values:
   EMIN   =  10.00;   EMAX   =-10.00  energy-range for DOS
   EFERMI =   0.00
   ISMEAR =     0;   SIGMA  =   0.05  broadening in eV -4-tet -1-fermi 0-gaus

 Electronic relaxation 2 (details)
   IALGO  =     58    algorithm
   LDIAG  =      T    sub-space diagonalisation (order eigenvalues)
   LSUBROT=      F    optimize rotation matrix (better conditioning)
   TURBO    =      0    0=normal 1=particle mesh
   IRESTART =      0    0=no restart 2=restart with 2 vectors
   NREBOOT  =      0    no. of reboots
   NMIN     =      0    reboot dimension
   EREF     =   0.00    reference energy to select bands
   IMIX   =      4    mixing-type and parameters
     AMIX     =   0.40;   BMIX     =  1.00
     AMIX_MAG =   1.60;   BMIX_MAG =  1.00
     AMIN     =   0.10
     WC   =   100.;   INIMIX=   1;  MIXPRE=   1;  MAXMIX= -45

 Intra band minimization:
   WEIMIN = 0.0010     energy-eigenvalue tresh-hold
   EBREAK =  0.22E-07  absolut break condition
   DEPER  =   0.30     relativ break condition  

   TIME   =   0.40     timestep for ELM

  volume/ion in A,a.u.               =      10.41        70.27
  Fermi-wavevector in a.u.,A,eV,Ry     =   1.547448  2.924252 32.580436  2.394595
  Thomas-Fermi vector in A             =   2.652540
 
 Write flags
   LWAVE        =      T    write WAVECAR
   LDOWNSAMPLE  =      F    k-point downsampling of WAVECAR
   LCHARG       =      F    write CHGCAR
   LVTOT        =      F    write LOCPOT, total local potential
   LVHAR        =      T    write LOCPOT, Hartree potential only
   LELF         =      F    write electronic localiz. function (ELF)
   LORBIT       =     10    0 simple, 1 ext, 2 COOP (PROOUT), +10 PAW based schemes


 Dipole corrections
   LMONO  =      F    monopole corrections only (constant potential shift)
   LDIPOL =      F    correct potential (dipole corrections)
   IDIPOL =      0    1-x, 2-y, 3-z, 4-all directions 
   EPSILON=  1.0000000 bulk dielectric constant

 Exchange correlation treatment:
   GGA     =    --    GGA type
   LEXCH   =     8    internal setting for exchange type
   VOSKOWN=      0    Vosko Wilk Nusair interpolation
   EXXOEP  =     0    0=HF, 1=EXX-LHF (local Hartree Fock) 2=EXX OEP
   LHFCALC =     T    Hartree Fock is set to
   LSYMGRAD=     F    symmetrize gradient (conserves proper symmetry)
   PRECFOCK=fast      Normal, Fast or Accurate (Low or Medium for compatibility)
   LRHFCALC=     F    long range Hartree Fock
   LRSCOR  =     F    long range correlation only (use DFT for short range part)
   LTHOMAS =     F    Thomas Fermi screening in HF
   LMODELHF=     F    short range full HF, long range fraction AEXX
   ENCUT4O =  -1.0   cutoff for four orbital integrals eV
   LMAXFOCK=     4    L truncation for augmentation on plane wave grid
   LMAXFOCKAE=  -1    L truncation for all-electron charge restoration on plane wave grid
   NMAXFOCKAE=   1    number of basis functions for all-electron charge restoration
   LFOCKAEDFT=     F  apply the AE augmentation even for DFT
   NKREDX  =     1    reduce k-point grid by
   NKREDY  =     1    reduce k-point grid by
   NKREDZ  =     1    reduce k-point grid by
   SHIFTRED=     F    shift reduced grid of Gamma
   HFKIDENT=     F    idential grid for each k-point
   ODDONLY =     F    use only odd q-grid points
   EVENONLY=     F    use only even q-grid points
   HFALPHA =   -1.0000 decay constant for conv. correction
   MCALPHA =    0.0000 extent of test-charge in conv. correction in multipole expansion
   AEXX    =    0.3200 exact exchange contribution
   HFSCREEN=    0.2000 screening length (either q_TF or 0.3 A-1)
   HFSCREENC=   0.2000 screening length for correlation (either q_TF or 0.3 A-1)
   HFRCUT  =    0.0000 spherical cutoff for potential kernel
   ALDAX   =    0.6800 LDA exchange part
   AGGAX   =    0.6800 GGA exchange part
   ALDAC   =    1.0000 LDA correlation
   AGGAC   =    1.0000 GGA correlation
   ENCUTFOCK=  -1.0 apply spherical cutoff to Coloumb kernel
   NBANDSGWLOW=     1    first orbital included in HF term
   NBLOCK_FOCK=    64    blocking factor in FOCK_ACC
 Linear response parameters
   LEPSILON=     F    determine dielectric tensor
   LRPA    =     F    only Hartree local field effects (RPA)
   LNABLA  =     F    use nabla operator in PAW spheres
   LVEL    =     F    velocity operator in full k-point grid
   LINTERFAST=   F  fast interpolation
   KINTER  =     0    interpolate to denser k-point grid
   CSHIFT  =0.1000    complex shift for real part using Kramers Kronig
   OMEGAMAX=  -1.0    maximum frequency
   DEG_THRESHOLD= 0.2000000E-02 threshold for treating states as degnerate
   RTIME   =   -0.100 relaxation time in fs
  (WPLASMAI=    0.000 imaginary part of plasma frequency in eV, 0.658/RTIME)
   DFIELD  = 0.0000000 0.0000000 0.0000000 field for delta impulse in time
 
 Orbital magnetization related:
   ORBITALMAG=     F  switch on orbital magnetization
   LCHIMAG   =     F  perturbation theory with respect to B field
   DQ        =  0.001000  dq finite difference perturbation B field
   LLRAUG    =     F  two centre corrections for induced B field



--------------------------------------------------------------------------------------------------------


 conjugate gradient relaxation of ions
 charge density and potential will be updated during run
 spin polarized calculation
 Conjugate gradient for all bands (Freysoldt, et al. PRB 79, 241103 (2009))
 preconditioned conjugated gradient                                        
 perform sub-space diagonalisation
    before iterative eigenvector-optimisation
 modified Broyden-mixing scheme, WC =      100.0
 initial mixing is a Kerker type mixing with AMIX =  0.4000 and BMIX =      1.0000
 Hartree-type preconditioning will be used
 using additional bands          448
 real space projection scheme for non local part
 use partial core corrections
 no Harris-corrections to forces 
 use gradient corrections 
 use of overlap-Matrix (Vanderbilt PP)
 Gauss-broadening in eV      SIGMA  =   0.05


--------------------------------------------------------------------------------------------------------


  energy-cutoff  :      400.00
  volume of cell :     1665.98
      direct lattice vectors                 reciprocal lattice vectors
    11.860900622  0.000000000 -2.912624073     0.084310630  0.000000000  0.000000000
     0.000000000 12.131861322  0.000000000     0.000000000  0.082427583  0.000000000
     0.000000000  0.000000000 11.577785773     0.021210029  0.000000000  0.086372301

  length of vectors
    12.213285494 12.131861322 11.577785773     0.084310630  0.082427583  0.088938404


 
 old parameters found on file WAVECAR:
  energy-cutoff  :      400.00
  volume of cell :     1665.98
      direct lattice vectors                 reciprocal lattice vectors
    11.860900622  0.000000000 -2.912624073     0.084310630  0.000000000  0.000000000
     0.000000000 12.131861322  0.000000000     0.000000000  0.082427583  0.000000000
     0.000000000  0.000000000 11.577785773     0.021210029  0.000000000  0.086372301

  length of vectors

 
 k-points in units of 2pi/SCALE and weight: KPOINTS created by Atomic Simulation Env
   0.02638016  0.02060690  0.02159308       1.000
 
 k-points in reciprocal lattice and weights: KPOINTS created by Atomic Simulation Env
   0.25000000  0.25000000  0.25000000       1.000
 
 position of ions in fractional coordinates (direct lattice) 
   0.09003074  0.00002373  0.39624989
   0.41095281  0.62498095  0.60400235
   0.58931368  0.62505843  0.89606275
   0.15968501  0.62491089  0.65579587
   0.84052336  0.62490771  0.84419342
   0.91024332  0.50003804  0.60375115
   0.08985823  0.50007834  0.89607651
   0.84050368  0.37527391  0.84409763
   0.91136900  0.25005213  0.60389844
   0.08879486  0.25003803  0.89604717
   0.84052418  0.62491405  0.34424076
   0.65968977  0.99996831  0.65629456
   0.15971378  0.62494356  0.15582259
   0.08863513  0.25007771  0.39628979
   0.91136407  0.25008158  0.10377363
   0.84061941  0.37534940  0.34410843
   0.15908184  0.37553409  0.15554454
   0.59002810  0.37533606  0.39648326
   0.41096471  0.37537486  0.10389941
   0.65986853  0.25022481  0.15540563
   0.41089924  0.62510638  0.10386380
   0.34090216  0.50030514  0.34456958
   0.58941966  0.62501744  0.39611625
   0.34061155  0.00013745  0.84385967
   0.41089208  0.12509524  0.60368009
   0.58929513  0.12507092  0.89600668
   0.91013210  0.99993757  0.10363481
   0.84061134  0.12485799  0.34411641
   0.15903285  0.12459873  0.15555404
   0.59004139  0.12489549  0.39650380
   0.41101487  0.12498138  0.10392791
   0.34088889  0.99995671  0.34458200
   0.65966135  0.00020059  0.15608238
   0.09004728  0.50013583  0.39620607
   0.65965904  0.50020995  0.15608214
   0.65980947  0.25007826  0.65531813
   0.91019763  0.50019128  0.10366111
   0.41085266  0.37510438  0.60364934
   0.58935852  0.37529777  0.89600510
   0.15971671  0.37528667  0.65575485
   0.65967690  0.50016990  0.65626828
   0.34062475  0.50007336  0.84384363
   0.08983271  0.00000970  0.89609957
   0.91020345  0.00005687  0.60374404
   0.84048093  0.12489116  0.84412383
   0.15970183  0.12485821  0.65576583
   0.34035168  0.25011161  0.84465613
   0.08873510  0.75008694  0.39608892
   0.91132605  0.75005885  0.10392799
   0.84052703  0.87527486  0.34423585
   0.15965360  0.87522004  0.15586094
   0.58950524  0.87527433  0.39614278
   0.41081186  0.87527497  0.10386672
   0.34044768  0.75018077  0.34446042
   0.65985394  0.75022309  0.15541361
   0.08878147  0.75004022  0.89601487
   0.91139207  0.75003309  0.60397623
   0.84054097  0.87522189  0.84417123
   0.15962107  0.87523438  0.65584826
   0.58939910  0.87532268  0.89607868
   0.41085560  0.87527695  0.60401437
   0.34041224  0.75013545  0.84456194
   0.65981492  0.75008737  0.65536705
   0.33952270  0.25009132  0.33995570
   0.67258759  0.37550991  0.78084896
   0.32776417  0.37547995  0.71929678
   0.50284656  0.25022591  0.87242953
   0.16444113  0.50005521  0.05282317
   0.49728108  0.50018749  0.12786014
   0.99727917  0.62447969  0.12768146
   0.50289998  0.50015216  0.87220386
   0.49734088  0.50010364  0.62807018
   0.33608056  0.62451556  0.94713582
   0.66416786  0.62451469  0.55285611
   0.17250281  0.50012011  0.78050872
   0.82780737  0.50014287  0.71954767
   0.00291833  0.62444796  0.87221228
   0.99725725  0.62442092  0.62769489
   0.83573276  0.50009076  0.94707933
   0.16444324  0.50011233  0.55286520
   0.67252488  0.62479562  0.28069897
   0.32774645  0.62466023  0.21923464
   0.50317173  0.50009485  0.37211652
   0.49742323  0.25012016  0.62792566
   0.33614694  0.62469521  0.44720718
   0.66412558  0.62456532  0.05283877
   0.17253424  0.50015430  0.28040198
   0.82775698  0.50020211  0.21941347
   0.00291701  0.62444949  0.37226684
   0.83565611  0.50010991  0.44706195
   0.33592622  0.37579582  0.94728869
   0.67269938  0.37566116  0.28060855
   0.17248306  0.25007519  0.78097612
   0.17247143  0.00003311  0.78053275
   0.82781022  0.99994528  0.71956650
   0.00292260  0.12441760  0.87222977
   0.99721476  0.12439647  0.62766002
   0.83569110  0.00004722  0.94705465
   0.16439043  0.00000835  0.55290680
   0.67270564  0.12464338  0.28062067
   0.32780468  0.12476876  0.21964306
   0.66472346  0.12416704  0.55321401
   0.50317143  0.00013260  0.37213900
   0.33609126  0.12424634  0.44712188
   0.66407513  0.12459572  0.05282924
   0.17249277  0.00006274  0.28041518
   0.82774487  0.00001062  0.21942224
   0.00291964  0.12432642  0.37224631
   0.99703832  0.12435142  0.12750607
   0.83562550  0.00007061  0.44705499
   0.16440159  0.00005960  0.05285099
   0.49728433  0.00012885  0.12787818
   0.33598104  0.12444728  0.94731386
   0.49735147  0.00007445  0.62809957
   0.50290270  0.00015680  0.87222005
   0.82776503  0.25005133  0.71906830
   0.00295096  0.37568107  0.87221950
   0.99724042  0.37570074  0.62766589
   0.83656213  0.25012623  0.94704715
   0.16354599  0.25008140  0.55295642
   0.32770942  0.62471308  0.71923023
   0.32780731  0.37541214  0.21963421
   0.50445435  0.25011222  0.37388805
   0.49719659  0.25021287  0.12801268
   0.33610875  0.37597909  0.44708187
   0.66411871  0.37580957  0.05282349
   0.17143908  0.25010713  0.28057515
   0.82783127  0.25014617  0.21896506
   0.00293552  0.37583638  0.37221897
   0.99708662  0.37577774  0.12751843
   0.83651670  0.25012944  0.44697502
   0.16383134  0.25004873  0.05301830
   0.67256774  0.12469610  0.78087724
   0.32777178  0.12464362  0.71929859
   0.66471347  0.37596732  0.55320350
   0.67251174  0.62474913  0.78079361
   0.16371716  0.75009529  0.05288989
   0.83645504  0.75010107  0.44711045
   0.99723276  0.87567039  0.12769674
   0.00290131  0.87571899  0.37231279
   0.82770972  0.75011394  0.21907310
   0.17246206  0.75016178  0.28093837
   0.66421377  0.87583987  0.05284307
   0.33606511  0.87562388  0.44723300
   0.49731868  0.75025529  0.12759409
   0.50296527  0.75020416  0.37228119
   0.32772825  0.87558919  0.21928564
   0.67254688  0.87550062  0.28069060
   0.16372567  0.75010041  0.55286857
   0.83646652  0.75009148  0.94711913
   0.99721569  0.87568039  0.62773468
   0.00291815  0.87563714  0.87226249
   0.82771452  0.75002139  0.71905726
   0.17247809  0.75009555  0.78095182
   0.66426226  0.87565944  0.55286128
   0.33599783  0.87576221  0.94715610
   0.49730820  0.75018313  0.62766902
   0.50293349  0.75024363  0.87235644
   0.32766881  0.87545827  0.71927365
   0.67254457  0.87543429  0.78077889
 
 position of ions in cartesian coordinates  (Angst):
   1.06784568  0.00028792  4.32547067
   4.87427042  7.58218216  5.79605877
   6.98979099  7.58312220  8.65797330
   1.89400804  7.58133224  7.12756171
   9.96936407  7.58129370  7.32576203
  10.79630552  6.06639216  4.33890493
   1.06579951  6.06688103 10.11285860
   9.96913060  4.55277101  7.32471029
  10.80965710  3.03359771  4.33733151
   1.05318705  3.03342673 10.11561614
   9.96937381  7.58137064  1.53741483
   7.82451484 12.13147688  5.67700947
   1.89434930  7.58172860  1.33889442
   1.05129244  3.03390812  4.32999749
  10.80959868  3.03395502 -1.45299209
   9.97050330  4.55368691  1.53560530
   1.88685392  4.55592752  1.33751570
   6.99826463  4.55352502  2.87186815
   4.87441158  4.55399575  0.00593936
   7.82663509  3.03569266 -0.12269583
   4.87363509  7.58370390  0.00571781
   4.04340666  6.06963255  2.99643297
   6.99104798  7.58262491  2.86939119
   4.03995978  0.00166755  8.77795310
   4.87355011  1.51763805  5.79250461
   6.98957101  1.51734301  8.65737818
  10.79498644 12.13110397 -1.45101105
   9.97040754  1.51475985  1.53572131
   1.88627284  1.51161447  1.33776848
   6.99842229  1.51521475  2.87206724
   4.87500648  1.51625673  0.00612325
   4.04324928 12.13133615  2.99661544
   7.82417773  0.00243351 -0.11425718
   1.06804185  6.06757850  4.32491515
   7.82415027  6.06847770 -0.11425326
   7.82593454  3.03391474  5.66535600
  10.79576358  6.06825120 -1.45089740
   4.87308263  4.55071436  5.79226337
   6.99032282  4.55306045  8.65717523
   1.89438401  4.55292589  7.12699440
   7.82436218  6.06799183  5.67674271
   4.04011634  6.06682067  8.77772891
   1.06549682  0.00011765 10.11319989
  10.79583264  0.00068988  4.33893863
   9.96886073  1.51516219  7.32507984
   1.89420757  1.51476252  7.12716490
   4.03687745  3.03431938  8.78793121
   1.05247825  9.09995068  4.32738062
  10.80914776  9.09961000 -1.45109420
   9.96940757 10.61871328  1.53734966
   1.89363554 10.61804811  1.33951359
   6.99206308 10.61870673  2.86944911
   4.87259863 10.61871451  0.00600614
   4.03801613  9.10108910  2.99649288
   7.82646204  9.10160250 -0.12256099
   1.05302816  9.09938388 10.11528113
  10.80993082  9.09929742  4.33816486
   9.96957294 10.61807058  7.32545380
   1.89324959 10.61822207  7.12835450
   6.99080419 10.61929335  8.65790898
   4.87311746 10.61873862  5.79648106
   4.03759576  9.10053930  8.78666429
   7.82599915  9.09995600  5.66590650
   4.02704506  3.03407315  2.94703231
   7.97749452  4.55563421  7.08150714
   3.88757825  4.55527074  7.37321017
   5.96421305  3.03570610  8.63619918
   1.95041995  6.06660050  0.13262011
   5.89820152  6.06820532  0.03194450
  11.82862910  7.57610100 -1.42643077
   5.96484666  6.06777661  8.63343084
   5.89891076  6.06718803  5.82309493
   3.98621815  7.57653615  9.98685934
   7.87762893  7.57652561  4.46637832
   2.04603873  6.06738788  8.53412687
   9.81854098  6.06766393  5.91967707
   0.03461397  7.57571606 10.08978695
  11.82836917  7.57538797  4.36268146
   9.91254322  6.06703177  8.53090622
   1.95044490  6.06729346  5.92199352
   7.97675073  7.57993384  1.29106040
   3.88736806  7.57829130  1.58364954
   5.96806990  6.06708139  2.84273530
   5.89988754  3.03442312  5.82118184
   3.98700548  7.57871565  4.19859927
   7.87712746  7.57713988 -1.32259217
   2.04641151  6.06780266  2.74390661
   9.81794332  6.06838264  0.12937728
   0.03459841  7.57573462  4.30152956
   9.91163407  6.06726402  2.74203543
   3.98438755  4.55910279  9.98907870
   7.97882044  4.55746912  1.28950533
   2.04580448  3.03387756  8.53959588
   2.04566654  0.00040169  8.53449655
   9.81857479 12.13119747  5.91988681
   0.03466469  1.50941710 10.08997693
  11.82786518  1.50916075  4.36240156
   9.91204911  0.00057292  8.53074184
   1.94981855  0.00010126  5.92262893
   7.97889478  1.51215623  1.28962738
   3.88805873  1.51367726  1.58820845
   7.88421891  1.50637736  4.46890374
   5.96806631  0.00160874  2.84299635
   3.98634509  1.50733932  4.19777389
   7.87652914  1.51157801 -1.32255561
   2.04591956  0.00076111  2.74418030
   9.81779967  0.00012889  0.12951409
   0.03462954  1.50831089  4.30128419
  11.82577246  1.50861417 -1.42775984
   9.91127099  0.00085669  2.74204398
   1.94995090  0.00072310  0.13305740
   5.89823999  0.00156314  0.03214383
   3.98503772  1.50977720  9.98921041
   5.89903640  0.00090318  5.82340434
   5.96487899  0.00190222  8.63361042
   9.81803878  3.03358812  5.91425039
   0.03500106  4.55771067 10.08977552
  11.82816951  4.55794923  4.36239480
   9.92238027  3.03449671  8.52811805
   1.93980276  3.03395284  5.92566297
   3.88692882  7.57893241  7.37259924
   3.88808996  4.55444798  1.58809841
   5.98328289  3.03432675  2.85950988
   5.89719935  3.03554780  0.03395668
   3.98655246  4.56132623  4.19725971
   7.87704600  4.55926964 -1.32274908
   2.03342193  3.03426496  2.74910139
   9.81882441  3.03473860  0.12396930
   0.03481795  4.55959489  4.30092137
  11.82634526  4.55888349 -1.42775741
   9.92184150  3.03453573  2.73852237
   1.94318726  3.03355646  0.13665539
   7.97725914  1.51279576  7.08189236
   3.88766855  1.51215915  7.37320902
   7.88410045  4.56118335  4.46881116
   7.97659490  7.57936977  7.08108724
   1.94183294  9.10005209  0.13550134
   9.92111016  9.10012212  2.74026986
  11.82807863 10.62351173 -1.42611858
   0.03441220 10.62410134  4.30210725
   9.81738270  9.10027835  0.12557423
   2.04555532  9.10085870  2.75032710
   7.87817349 10.62556783 -1.32279931
   3.98603482 10.62294752  4.19913659
   5.89864748  9.10199307  0.02875468
   5.96562106  9.10137283  2.84524312
   3.88715225 10.62252662  1.58429301
   7.97701175 10.62145205  1.29089943
   1.94193393  9.10011420  5.92412251
   9.92124621  9.10000579  8.52922989
  11.82787623 10.62363303  4.36326325
   0.03461195 10.62310835 10.09036872
   9.81743972  9.09915545  5.91426964
   2.04574543  9.10005521  8.53932901
   7.87874867 10.62337885  4.46616316
   3.98523681 10.62462564  9.98733505
   5.89852314  9.10111765  5.81854567
   5.96524414  9.10185164  8.63509979
   3.88644714 10.62093834  7.37322024
   7.97698436 10.62064740  7.08082122
 


--------------------------------------------------------------------------------------------------------


 k-point  1 :   0.2500 0.2500 0.2500  plane waves:   30269

 maximum and minimum number of plane-waves per node :     30269    30269

 maximum number of plane-waves:     30269
 maximum index in each direction: 
   IXMAX=   19   IYMAX=   19   IZMAX=   18
   IXMIN=  -20   IYMIN=  -20   IZMIN=  -19


 serial   3D FFT for wavefunctions
 parallel 3D FFT for charge:
    minimum data exchange during FFTs selected (reduces bandwidth)


 FFT grid for exact exchange (Hartree Fock) 
  NGX = 42; NGY = 42; NGZ = 40

 
 Radii for the augmentation spheres in the non-local exchange
 for species   1 augmentation radius   1.277 (default was   1.031)
       energy cutoff for augmentation   1600.0
 for species   2 augmentation radius   1.295 (default was   1.002)
       energy cutoff for augmentation   1600.0
 for species   3 augmentation radius   0.820 (default was   0.722)
       energy cutoff for augmentation   1600.0
 Maximum index for augmentation-charges in exchange          383
  SETUP_FOCK is finished

 total amount of memory used by VASP MPI-rank0   102439. kBytes
=======================================================================

   base      :      30000. kBytes
   nonlr-proj:      34692. kBytes
   fftplans  :       1403. kBytes
   grid      :      18679. kBytes
   one-center:       4976. kBytes
   HF        :        194. kBytes
   wavefun   :      12495. kBytes
 
     INWAV:  cpu time    3.1884: real time    3.4613
 Broyden mixing: mesh for mixing (old mesh)
   NGX = 39   NGY = 39   NGZ = 37
  (NGX  =120   NGY  =120   NGZ  =120)
  gives a total of  56277 points

 charge density for first step will be calculated from the start-wavefunctions


--------------------------------------------------------------------------------------------------------


 Maximum index for non-local projection operator         1982
 Maximum index for augmentation-charges          167 (set IRDMAX)


--------------------------------------------------------------------------------------------------------


 initial charge from wavefunction
 First call to EWALD:  gamma=   0.150
 Maximum number of real-space cells 3x 3x 3
 Maximum number of reciprocal cells 3x 3x 3

    FEWALD:  cpu time    0.0051: real time    0.0051


--------------------------------------- Iteration      1(   1)  ---------------------------------------


    POTLOK:  cpu time    0.1029: real time    0.1043
    SETDIJ:  cpu time    1.7535: real time    1.7536
    TRIAL :  cpu time  108.1053: real time  108.3369
    CORREC:  cpu time  108.9831: real time  109.2467
    CHARGE:  cpu time    0.1403: real time    0.1403
    --------------------------------------------
      LOOP:  cpu time  219.1135: real time  219.6367

 eigenvalue-minimisations  :     0
 total energy-change (2. order) :-0.1522384E+04  (-0.1184879E-02)
 number of electron    1407.0004472 magnetization       2.9999977
 augmentation part      612.1780451 magnetization       1.9488849

 Free energy of the ion-electron system (eV)
  ---------------------------------------------------
  alpha Z        PSCENC =      9560.78109732
  Ewald energy   TEWEN  =   -118757.39575076
  -Hartree energ DENC   =    -44792.98575498
  -exchange      EXHF   =      5286.90797861
  -V(xc)+E(xc)   XCENC  =      4762.86685597
  PAW double counting   =    127659.33011209  -149255.80382473
  entropy T*S    EENTRO =        -0.00000000
  eigenvalues    EBANDS =    -13804.87108522
  atomic energy  EATOM  =    177818.78644850
  ---------------------------------------------------
  free energy    TOTEN  =     -1522.38392320 eV

  energy without entropy =    -1522.38392320  energy(sigma->0) =    -1522.38392320
  exchange ACFDT corr.  =         0.00000000  see jH, gK, PRB 81, 115126


--------------------------------------------------------------------------------------------------------




--------------------------------------- Iteration      1(   2)  ---------------------------------------


    POTLOK:  cpu time    0.0948: real time    0.0956
    SETDIJ:  cpu time    1.6673: real time    1.6674
    TRIAL :  cpu time  108.4813: real time  108.7296
    CORREC:  cpu time  108.9143: real time  109.1648
    CHARGE:  cpu time    0.1475: real time    0.1475
    --------------------------------------------
      LOOP:  cpu time  219.3097: real time  219.8239

 eigenvalue-minimisations  :     0
 total energy-change (2. order) :-0.1184314E-02  (-0.6585741E-03)
 number of electron    1407.0004472 magnetization       2.9999977
 augmentation part      612.1752983 magnetization       1.9479591

 Free energy of the ion-electron system (eV)
  ---------------------------------------------------
  alpha Z        PSCENC =      9560.78109732
  Ewald energy   TEWEN  =   -118757.39575076
  -Hartree energ DENC   =    -44795.22929405
  -exchange      EXHF   =      5287.02918626
  -V(xc)+E(xc)   XCENC  =      4762.96389488
  PAW double counting   =    127654.21368825  -149252.01723706
  entropy T*S    EENTRO =        -0.00000000
  eigenvalues    EBANDS =    -13801.51714085
  atomic energy  EATOM  =    177818.78644850
  ---------------------------------------------------
  free energy    TOTEN  =     -1522.38510751 eV

  energy without entropy =    -1522.38510751  energy(sigma->0) =    -1522.38510751
  exchange ACFDT corr.  =         0.00000000  see jH, gK, PRB 81, 115126


--------------------------------------------------------------------------------------------------------




--------------------------------------- Iteration      1(   3)  ---------------------------------------


    POTLOK:  cpu time    0.0992: real time    0.1000
    SETDIJ:  cpu time    1.7654: real time    1.7655
    TRIAL :  cpu time  108.5664: real time  108.8135
    CORREC:  cpu time  109.1061: real time  109.3384
    CHARGE:  cpu time    0.1434: real time    0.1434
    --------------------------------------------
      LOOP:  cpu time  219.6855: real time  220.1793

 eigenvalue-minimisations  :     0
 total energy-change (2. order) :-0.6562810E-03  (-0.2320947E-03)
 number of electron    1407.0004472 magnetization       2.9999977
 augmentation part      612.1703957 magnetization       1.9477036

 Free energy of the ion-electron system (eV)
  ---------------------------------------------------
  alpha Z        PSCENC =      9560.78109732
  Ewald energy   TEWEN  =   -118757.39575076
  -Hartree energ DENC   =    -44795.37859461
  -exchange      EXHF   =      5287.06878590
  -V(xc)+E(xc)   XCENC  =      4762.98405735
  PAW double counting   =    127646.48056834  -149243.86500699
  entropy T*S    EENTRO =        -0.00000000
  eigenvalues    EBANDS =    -13801.84736884
  atomic energy  EATOM  =    177818.78644850
  ---------------------------------------------------
  free energy    TOTEN  =     -1522.38576379 eV

  energy without entropy =    -1522.38576379  energy(sigma->0) =    -1522.38576379
  exchange ACFDT corr.  =         0.00000000  see jH, gK, PRB 81, 115126


--------------------------------------------------------------------------------------------------------




--------------------------------------- Iteration      1(   4)  ---------------------------------------


    POTLOK:  cpu time    0.0950: real time    0.0958
    SETDIJ:  cpu time    1.6957: real time    1.6959
    TRIAL :  cpu time  108.7413: real time  108.9650
    CORREC:  cpu time  109.0582: real time  109.3072
    CHARGE:  cpu time    0.1397: real time    0.1397
    --------------------------------------------
      LOOP:  cpu time  219.7337: real time  220.2233

 eigenvalue-minimisations  :     0
 total energy-change (2. order) :-0.2317240E-03  (-0.1440354E-03)
 number of electron    1407.0004472 magnetization       2.9999977
 augmentation part      612.1692195 magnetization       1.9474972

 Free energy of the ion-electron system (eV)
  ---------------------------------------------------
  alpha Z        PSCENC =      9560.78109732
  Ewald energy   TEWEN  =   -118757.39575076
  -Hartree energ DENC   =    -44794.99115806
  -exchange      EXHF   =      5287.05351366
  -V(xc)+E(xc)   XCENC  =      4762.96896440
  PAW double counting   =    127644.13411900  -149241.06629828
  entropy T*S    EENTRO =        -0.00000000
  eigenvalues    EBANDS =    -13802.65693130
  atomic energy  EATOM  =    177818.78644850
  ---------------------------------------------------
  free energy    TOTEN  =     -1522.38599552 eV

  energy without entropy =    -1522.38599552  energy(sigma->0) =    -1522.38599552
  exchange ACFDT corr.  =        -0.00000000  see jH, gK, PRB 81, 115126


--------------------------------------------------------------------------------------------------------




--------------------------------------- Iteration      1(   5)  ---------------------------------------


    POTLOK:  cpu time    0.0977: real time    0.0985
    SETDIJ:  cpu time    1.7806: real time    1.7807
    TRIAL :  cpu time  108.5280: real time  108.8047
    CORREC:  cpu time  108.9965: real time  109.2494
    CHARGE:  cpu time    0.1449: real time    0.1449
    --------------------------------------------
      LOOP:  cpu time  219.5521: real time  220.0964

 eigenvalue-minimisations  :     0
 total energy-change (2. order) :-0.1440839E-03  (-0.8709709E-04)
 number of electron    1407.0004472 magnetization       2.9999977
 augmentation part      612.1701765 magnetization       1.9468410

 Free energy of the ion-electron system (eV)
  ---------------------------------------------------
  alpha Z        PSCENC =      9560.78109732
  Ewald energy   TEWEN  =   -118757.39575076
  -Hartree energ DENC   =    -44794.89258760
  -exchange      EXHF   =      5287.04371539
  -V(xc)+E(xc)   XCENC  =      4762.95968857
  PAW double counting   =    127644.37802574  -149241.37989808
  entropy T*S    EENTRO =        -0.00000000
  eigenvalues    EBANDS =    -13802.66687869
  atomic energy  EATOM  =    177818.78644850
  ---------------------------------------------------
  free energy    TOTEN  =     -1522.38613960 eV

  energy without entropy =    -1522.38613960  energy(sigma->0) =    -1522.38613960
  exchange ACFDT corr.  =         0.00000000  see jH, gK, PRB 81, 115126


--------------------------------------------------------------------------------------------------------




--------------------------------------- Iteration      1(   6)  ---------------------------------------


    POTLOK:  cpu time    0.0969: real time    0.0977
    SETDIJ:  cpu time    1.7835: real time    1.7837
    TRIAL :  cpu time  108.7508: real time  108.9981
    CORREC:  cpu time  108.8725: real time  109.1141
    EDDIAG:  cpu time  105.8329: real time  106.0679
    CHARGE:  cpu time    0.1334: real time    0.1334
    --------------------------------------------
      LOOP:  cpu time  325.4734: real time  326.2132

 eigenvalue-minimisations  :     0
 total energy-change (2. order) :-0.8714467E-04  (-0.6859485E-04)
 number of electron    1407.0004472 magnetization       2.9999977
 augmentation part      612.1712529 magnetization       1.9463331

 Free energy of the ion-electron system (eV)
  ---------------------------------------------------
  alpha Z        PSCENC =      9560.78109732
  Ewald energy   TEWEN  =   -118757.39575076
  -Hartree energ DENC   =    -44794.98800551
  -exchange      EXHF   =      5287.06647816
  -V(xc)+E(xc)   XCENC  =      4762.96165049
  PAW double counting   =    127645.58544139  -149242.79863227
  entropy T*S    EENTRO =        -0.00000000
  eigenvalues    EBANDS =    -13802.37075187
  atomic energy  EATOM  =    177818.78644850
  ---------------------------------------------------
  free energy    TOTEN  =     -1522.38622675 eV

  energy without entropy =    -1522.38622675  energy(sigma->0) =    -1522.38622675
  exchange ACFDT corr.  =         0.00000000  see jH, gK, PRB 81, 115126


--------------------------------------------------------------------------------------------------------


  average scaling for gradient   0.9497


 average (electrostatic) potential at core
  the test charge radii are     1.0314  1.0025  0.7215
  (the norm of the test charge is              1.0000)
       1 -20.1364       2 -20.1546       3 -20.1582       4 -20.1047       5 -20.1036
       6 -20.1362       7 -20.1435       8 -20.1021       9 -20.1713      10 -20.1796
      11 -20.1004      12 -20.0720      13 -20.1079      14 -20.1616      15 -20.1738
      16 -20.0993      17 -20.1215      18 -20.1250      19 -20.1841      20 -20.1371
      21 -20.1596      22 -20.0666      23 -20.1507      24 -20.0801      25 -20.1277
      26 -20.1558      27 -20.1361      28 -20.1008      29 -20.1215      30 -20.1248
      31 -20.1854      32 -20.0651      33 -20.0772      34 -20.1370      35 -20.0774
      36 -20.1295      37 -20.1370      38 -20.1272      39 -20.1543      40 -20.1035
      41 -20.0722      42 -20.0809      43 -20.1431      44 -20.1355      45 -20.1033
      46 -20.1040      47 -20.1364      48 -20.1717      49 -20.1715      50 -20.0992
      51 -20.1058      52 -20.1481      53 -20.1572      54 -20.1339      55 -20.1290
      56 -20.1749      57 -20.1708      58 -20.1027      59 -20.1030      60 -20.1564
      61 -20.1529      62 -20.1328      63 -20.1293      64 -41.2844      65 -63.6658
      66 -63.6599      67 -63.5263      68 -63.1999      69 -63.5089      70 -63.5095
      71 -63.4992      72 -63.4879      73 -63.1996      74 -63.1959      75 -63.6646
      76 -63.6596      77 -63.5140      78 -63.5076      79 -63.1855      80 -63.1855
      81 -63.6645      82 -63.6701      83 -63.4897      84 -63.5055      85 -63.2067
      86 -63.1992      87 -63.6640      88 -63.6573      89 -63.5080      90 -63.1836
      91 -63.2081      92 -63.6663      93 -63.6816      94 -63.6636      95 -63.6590
      96 -63.5138      97 -63.5058      98 -63.1854      99 -63.1850     100 -63.6669
     101 -63.7421     102 -63.1920     103 -63.4878     104 -63.1153     105 -63.2000
     106 -63.6625     107 -63.6570     108 -63.5068     109 -63.5218     110 -63.1832
     111 -63.1992     112 -63.5083     113 -63.2088     114 -63.4875     115 -63.4986
     116 -63.6782     117 -63.5134     118 -63.5061     119 -63.2103     120 -63.2095
     121 -63.6689     122 -63.7416     123 -63.4354     124 -63.5490     125 -63.1149
     126 -63.1987     127 -63.6765     128 -63.6752     129 -63.5059     130 -63.5218
     131 -63.2091     132 -63.2247     133 -63.6662     134 -63.6600     135 -63.1913
     136 -63.6723     137 -63.2128     138 -63.2082     139 -63.5081     140 -63.5070
     141 -63.6780     142 -63.6825     143 -63.1980     144 -63.2055     145 -63.5263
     146 -63.5200     147 -63.6698     148 -63.6641     149 -63.2092     150 -63.2118
     151 -63.5071     152 -63.5136     153 -63.6810     154 -63.6840     155 -63.1944
     156 -63.1981     157 -63.5220     158 -63.5265     159 -63.6690     160 -63.6730
 
 
 
 E-fermi :   1.6204     XC(G=0):  -8.8820     alpha+bet :-11.2731


 spin component 1

 k-point     1 :       0.2500    0.2500    0.2500
  band No.  band energies     occupation 
      1     -45.9771      1.00000
      2     -45.9671      1.00000
      3     -45.9476      1.00000
      4     -19.9874      1.00000
      5     -19.8496      1.00000
      6     -19.8256      1.00000
      7     -19.7643      1.00000
      8     -19.6435      1.00000
      9     -19.6305      1.00000
     10     -19.6049      1.00000
     11     -19.4331      1.00000
     12     -19.3976      1.00000
     13     -19.3551      1.00000
     14     -19.3207      1.00000
     15     -19.2992      1.00000
     16     -19.2727      1.00000
     17     -19.2119      1.00000
     18     -19.1820      1.00000
     19     -19.1670      1.00000
     20     -19.1244      1.00000
     21     -19.0772      1.00000
     22     -19.0551      1.00000
     23     -19.0399      1.00000
     24     -19.0260      1.00000
     25     -19.0007      1.00000
     26     -18.9862      1.00000
     27     -18.9759      1.00000
     28     -18.9647      1.00000
     29     -18.9540      1.00000
     30     -18.9203      1.00000
     31     -18.9145      1.00000
     32     -18.8986      1.00000
     33     -18.8872      1.00000
     34     -18.8772      1.00000
     35     -18.8659      1.00000
     36     -18.8408      1.00000
     37     -18.8271      1.00000
     38     -18.8168      1.00000
     39     -18.8129      1.00000
     40     -18.7964      1.00000
     41     -18.7875      1.00000
     42     -18.7642      1.00000
     43     -18.7540      1.00000
     44     -18.7318      1.00000
     45     -18.7113      1.00000
     46     -18.6985      1.00000
     47     -18.6748      1.00000
     48     -18.6661      1.00000
     49     -18.6505      1.00000
     50     -18.6410      1.00000
     51     -18.6380      1.00000
     52     -18.6304      1.00000
     53     -18.6164      1.00000
     54     -18.6027      1.00000
     55     -18.5919      1.00000
     56     -18.5856      1.00000
     57     -18.5744      1.00000
     58     -18.5682      1.00000
     59     -18.5589      1.00000
     60     -18.5506      1.00000
     61     -18.5351      1.00000
     62     -18.5290      1.00000
     63     -18.5246      1.00000
     64     -18.5230      1.00000
     65     -18.5111      1.00000
     66     -18.5071      1.00000
     67     -18.4943      1.00000
     68     -18.4511      1.00000
     69     -18.4217      1.00000
     70     -18.4090      1.00000
     71     -18.4042      1.00000
     72     -18.3966      1.00000
     73     -18.3842      1.00000
     74     -18.3589      1.00000
     75     -18.3467      1.00000
     76     -18.3388      1.00000
     77     -18.3352      1.00000
     78     -18.3308      1.00000
     79     -18.3191      1.00000
     80     -18.3148      1.00000
     81     -18.3123      1.00000
     82     -18.3084      1.00000
     83     -18.3057      1.00000
     84     -18.3016      1.00000
     85     -18.2955      1.00000
     86     -18.2901      1.00000
     87     -18.2809      1.00000
     88     -18.2761      1.00000
     89     -18.2710      1.00000
     90     -18.2668      1.00000
     91     -18.2462      1.00000
     92     -18.2385      1.00000
     93     -18.2371      1.00000
     94     -18.2189      1.00000
     95     -18.2175      1.00000
     96     -18.2100      1.00000
     97     -18.1861      1.00000
     98     -18.0582      1.00000
     99     -18.0542      1.00000
    100     -14.2974      1.00000
    101     -14.2802      1.00000
    102     -14.2684      1.00000
    103     -14.2643      1.00000
    104     -14.2551      1.00000
    105     -14.2443      1.00000
    106     -14.2399      1.00000
    107     -14.2369      1.00000
    108     -14.2336      1.00000
    109     -14.2317      1.00000
    110     -14.2288      1.00000
    111     -14.2276      1.00000
    112     -14.2257      1.00000
    113     -14.2218      1.00000
    114     -14.2197      1.00000
    115     -14.2174      1.00000
    116     -14.2144      1.00000
    117     -14.2113      1.00000
    118     -14.2074      1.00000
    119     -14.2033      1.00000
    120     -14.1961      1.00000
    121     -14.1921      1.00000
    122     -14.1903      1.00000
    123     -14.1895      1.00000
    124     -14.1866      1.00000
    125     -14.1835      1.00000
    126     -14.1801      1.00000
    127     -14.1755      1.00000
    128     -14.1744      1.00000
    129     -14.1724      1.00000
    130     -14.1692      1.00000
    131     -14.1678      1.00000
    132     -14.1651      1.00000
    133     -14.1639      1.00000
    134     -14.1622      1.00000
    135     -14.1608      1.00000
    136     -14.1577      1.00000
    137     -14.1567      1.00000
    138     -14.1548      1.00000
    139     -14.1529      1.00000
    140     -14.1520      1.00000
    141     -14.1515      1.00000
    142     -14.1497      1.00000
    143     -14.1486      1.00000
    144     -14.1458      1.00000
    145     -14.1447      1.00000
    146     -14.1417      1.00000
    147     -14.1410      1.00000
    148     -14.1395      1.00000
    149     -14.1387      1.00000
    150     -14.1376      1.00000
    151     -14.1368      1.00000
    152     -14.1351      1.00000
    153     -14.1336      1.00000
    154     -14.1329      1.00000
    155     -14.1319      1.00000
    156     -14.1309      1.00000
    157     -14.1285      1.00000
    158     -14.1278      1.00000
    159     -14.1270      1.00000
    160     -14.1257      1.00000
    161     -14.1231      1.00000
    162     -14.1219      1.00000
    163     -14.1203      1.00000
    164     -14.1182      1.00000
    165     -14.1169      1.00000
    166     -14.1159      1.00000
    167     -14.1143      1.00000
    168     -14.1110      1.00000
    169     -14.1081      1.00000
    170     -14.1065      1.00000
    171     -14.1015      1.00000
    172     -14.0983      1.00000
    173     -14.0978      1.00000
    174     -14.0946      1.00000
    175     -14.0907      1.00000
    176     -14.0871      1.00000
    177     -14.0850      1.00000
    178     -14.0802      1.00000
    179     -14.0775      1.00000
    180     -14.0736      1.00000
    181     -14.0650      1.00000
    182     -14.0640      1.00000
    183     -14.0615      1.00000
    184     -14.0580      1.00000
    185     -14.0512      1.00000
    186     -14.0473      1.00000
    187     -14.0395      1.00000
    188     -14.0379      1.00000
    189     -14.0340      1.00000
    190     -14.0323      1.00000
    191     -14.0269      1.00000
    192     -14.0231      1.00000
    193     -14.0188      1.00000
    194     -14.0167      1.00000
    195     -14.0152      1.00000
    196     -14.0125      1.00000
    197     -14.0110      1.00000
    198     -14.0092      1.00000
    199     -14.0081      1.00000
    200     -14.0072      1.00000
    201     -14.0058      1.00000
    202     -14.0026      1.00000
    203     -14.0013      1.00000
    204     -14.0009      1.00000
    205     -13.9989      1.00000
    206     -13.9978      1.00000
    207     -13.9940      1.00000
    208     -13.9929      1.00000
    209     -13.9921      1.00000
    210     -13.9905      1.00000
    211     -13.9875      1.00000
    212     -13.9862      1.00000
    213     -13.9847      1.00000
    214     -13.9845      1.00000
    215     -13.9819      1.00000
    216     -13.9810      1.00000
    217     -13.9792      1.00000
    218     -13.9788      1.00000
    219     -13.9777      1.00000
    220     -13.9757      1.00000
    221     -13.9721      1.00000
    222     -13.9712      1.00000
    223     -13.9691      1.00000
    224     -13.9658      1.00000
    225     -13.9636      1.00000
    226     -13.9626      1.00000
    227     -13.9606      1.00000
    228     -13.9592      1.00000
    229     -13.9571      1.00000
    230     -13.9566      1.00000
    231     -13.9549      1.00000
    232     -13.9538      1.00000
    233     -13.9525      1.00000
    234     -13.9503      1.00000
    235     -13.9497      1.00000
    236     -13.9471      1.00000
    237     -13.9450      1.00000
    238     -13.9430      1.00000
    239     -13.9419      1.00000
    240     -13.9396      1.00000
    241     -13.9390      1.00000
    242     -13.9377      1.00000
    243     -13.9359      1.00000
    244     -13.9339      1.00000
    245     -13.9323      1.00000
    246     -13.9292      1.00000
    247     -13.9283      1.00000
    248     -13.9255      1.00000
    249     -13.9232      1.00000
    250     -13.9217      1.00000
    251     -13.9187      1.00000
    252     -13.9177      1.00000
    253     -13.9166      1.00000
    254     -13.9147      1.00000
    255     -13.9130      1.00000
    256     -13.9101      1.00000
    257     -13.9078      1.00000
    258     -13.9059      1.00000
    259     -13.9047      1.00000
    260     -13.9005      1.00000
    261     -13.8983      1.00000
    262     -13.8973      1.00000
    263     -13.8956      1.00000
    264     -13.8938      1.00000
    265     -13.8917      1.00000
    266     -13.8904      1.00000
    267     -13.8872      1.00000
    268     -13.8839      1.00000
    269     -13.8808      1.00000
    270     -13.8757      1.00000
    271     -13.8734      1.00000
    272     -13.8713      1.00000
    273     -13.8661      1.00000
    274     -13.8656      1.00000
    275     -13.8640      1.00000
    276     -13.8614      1.00000
    277     -13.8602      1.00000
    278     -13.8560      1.00000
    279     -13.8550      1.00000
    280     -13.8536      1.00000
    281     -13.8514      1.00000
    282     -13.8501      1.00000
    283     -13.8494      1.00000
    284     -13.8488      1.00000
    285     -13.8467      1.00000
    286     -13.8444      1.00000
    287     -13.8417      1.00000
    288     -13.8404      1.00000
    289     -13.8384      1.00000
    290     -13.8373      1.00000
    291     -13.8347      1.00000
    292     -13.8334      1.00000
    293     -13.8322      1.00000
    294     -13.8305      1.00000
    295     -13.8299      1.00000
    296     -13.8293      1.00000
    297     -13.8279      1.00000
    298     -13.8265      1.00000
    299     -13.8235      1.00000
    300     -13.8221      1.00000
    301     -13.8180      1.00000
    302     -13.8164      1.00000
    303     -13.8128      1.00000
    304     -13.8113      1.00000
    305     -13.8085      1.00000
    306     -13.8073      1.00000
    307     -13.8056      1.00000
    308     -13.8046      1.00000
    309     -13.8025      1.00000
    310     -13.8007      1.00000
    311     -13.7995      1.00000
    312     -13.7961      1.00000
    313     -13.7934      1.00000
    314     -13.7930      1.00000
    315     -13.7919      1.00000
    316     -13.7908      1.00000
    317     -13.7894      1.00000
    318     -13.7876      1.00000
    319     -13.7865      1.00000
    320     -13.7854      1.00000
    321     -13.7836      1.00000
    322     -13.7813      1.00000
    323     -13.7788      1.00000
    324     -13.7774      1.00000
    325     -13.7762      1.00000
    326     -13.7755      1.00000
    327     -13.7735      1.00000
    328     -13.7722      1.00000
    329     -13.7713      1.00000
    330     -13.7675      1.00000
    331     -13.7668      1.00000
    332     -13.7644      1.00000
    333     -13.7617      1.00000
    334     -13.7604      1.00000
    335     -13.7592      1.00000
    336     -13.7569      1.00000
    337     -13.7545      1.00000
    338     -13.7479      1.00000
    339     -13.7465      1.00000
    340     -13.7454      1.00000
    341     -13.7440      1.00000
    342     -13.7425      1.00000
    343     -13.7395      1.00000
    344     -13.7390      1.00000
    345     -13.7360      1.00000
    346     -13.7317      1.00000
    347     -13.7240      1.00000
    348     -13.7182      1.00000
    349     -13.7130      1.00000
    350     -13.7049      1.00000
    351     -13.6928      1.00000
    352     -13.6860      1.00000
    353     -13.6792      1.00000
    354     -13.6739      1.00000
    355     -13.6640      1.00000
    356     -13.6580      1.00000
    357     -13.6454      1.00000
    358     -13.6366      1.00000
    359     -13.6204      1.00000
    360     -13.6138      1.00000
    361     -13.6030      1.00000
    362     -13.5911      1.00000
    363     -13.5604      1.00000
    364     -13.5564      1.00000
    365     -13.5332      1.00000
    366     -13.5120      1.00000
    367     -13.5090      1.00000
    368     -13.4833      1.00000
    369     -13.4574      1.00000
    370     -13.4558      1.00000
    371     -13.4327      1.00000
[...]
      1.94021      3.03398      5.92677        -0.003202      0.000619     -0.013739
      3.88678      7.57893      7.37302         0.000800      0.000283     -0.001611
      3.88792      4.55459      1.58701        -0.010082      0.000129     -0.005306
      5.98291      3.03438      2.85943        -0.008302     -0.000003     -0.001153
      5.89789      3.03561      0.03407         0.002824      0.001192      0.002917
      3.98643      4.56107      4.19670        -0.007786     -0.005739     -0.012667
      7.87702      4.55916     -1.32244         0.005359     -0.000058      0.004658
      2.03280      3.03428      2.74873        -0.002534      0.001757     -0.008325
      9.81842      3.03469      0.12412        -0.003676     -0.001325      0.004095
      0.03414      4.55960      4.30102        -0.001839     -0.003217     -0.001335
     11.82688      4.55902     -1.42773        -0.006455      0.002400      0.003819
      9.92189      3.03456      2.73837        -0.000423      0.000433     -0.003109
      1.94302      3.03362      0.13717        -0.005220      0.000349      0.003109
      7.97743      1.51279      7.08152        -0.000362     -0.001255      0.003114
      3.88740      1.51229      7.37335        -0.000307      0.001721     -0.008631
      7.88414      4.56104      4.46936        -0.004486     -0.000417     -0.015575
      7.97671      7.57925      7.08074        -0.001874     -0.000143      0.001136
      1.94199      9.10002      0.13594         0.005626     -0.000227      0.004805
      9.92121      9.10020      2.73989        -0.000736      0.001564     -0.005083
     11.82890     10.62358     -1.42610         0.003741      0.004579      0.003157
      0.03399     10.62419      4.30200         0.000524      0.002856     -0.003647
      9.81743      9.10024      0.12543        -0.001150     -0.000557      0.000524
      2.04580      9.10080      2.75039         0.005504     -0.000694     -0.000031
      7.87826     10.62558     -1.32250         0.004595     -0.001297      0.004156
      3.98587     10.62274      4.19894        -0.004040     -0.001887      0.004468
      5.89908      9.10195      0.02873         0.000642      0.001144      0.001749
      5.96515      9.10128      2.84527        -0.002817      0.001044     -0.000215
      3.88719     10.62256      1.58460        -0.002334      0.000030      0.008219
      7.97710     10.62147      1.29081         0.004375     -0.001829     -0.003364
      1.94205      9.10008      5.92506        -0.005831      0.000292     -0.012715
      9.92112      9.10002      8.52842         0.006269      0.001381      0.015624
     11.82864     10.62375      4.36332         0.000698      0.001009      0.000623
      0.03395     10.62324     10.09046         0.005910      0.003124      0.002709
      9.81731      9.09919      5.91453         0.001589      0.000704     -0.005510
      2.04586      9.10007      8.53917        -0.000017      0.000576      0.004927
      7.87902     10.62362      4.46699        -0.003731      0.000484     -0.016340
      3.98497     10.62484      9.98669         0.000329      0.001554      0.014951
      5.89918      9.10105      5.81861        -0.001939      0.000275     -0.000679
      5.96455      9.10182      8.63507         0.000868     -0.000132      0.001901
      3.88632     10.62093      7.37362         0.000486     -0.000573     -0.001444
      7.97709     10.62080      7.08047        -0.002387      0.001274      0.002034
 -----------------------------------------------------------------------------------
    total drift:                               -0.176065      0.043666     -0.024776


--------------------------------------------------------------------------------------------------------



  FREE ENERGIE OF THE ION-ELECTRON SYSTEM (eV)
  ---------------------------------------------------
  free  energy   TOTEN  =     -1522.38713723 eV

  energy  without entropy=    -1522.38713723  energy(sigma->0) =    -1522.38713723
 
 d Force =-0.9727216E-06[-0.211E-05, 0.163E-06]  d Energy = 0.2694956E-04-0.279E-04
 d Force = 0.2138962E-02[ 0.214E-02, 0.214E-02]  d Ewald  = 0.2138963E-02-0.844E-09


--------------------------------------------------------------------------------------------------------


    POTLOK:  cpu time    1.8957: real time    1.8958


--------------------------------------------------------------------------------------------------------




--------------------------------------------------------------------------------------------------------


  
 reached required accuracy - stopping structural energy minimisation
 writing wavefunctions
     LOOP+:  cpu time  726.1259: real time  727.5726
    4ORBIT:  cpu time    0.0000: real time    0.0000
 


 total charge     
 
# of ion       s       p       d       tot
------------------------------------------
    1        0.754   1.012  10.307  12.073
    2        0.753   1.008  10.304  12.065
    3        0.753   1.008  10.304  12.065
    4        0.655   0.826  10.271  11.752
    5        0.655   0.827  10.271  11.753
    6        0.754   1.012  10.307  12.073
    7        0.754   1.013  10.307  12.073
    8        0.655   0.827  10.271  11.753
    9        0.752   1.003  10.301  12.056
   10        0.752   1.003  10.301  12.055
   11        0.655   0.826  10.271  11.752
   12        0.656   0.832  10.275  11.763
   13        0.655   0.826  10.270  11.751
   14        0.752   1.004  10.302  12.058
   15        0.752   1.004  10.302  12.058
   16        0.655   0.826  10.271  11.753
   17        0.656   0.826  10.271  11.753
   18        0.754   1.010  10.306  12.069
   19        0.753   1.008  10.304  12.065
   20        0.654   0.820  10.266  11.740
   21        0.753   1.008  10.304  12.065
   22        0.657   0.831  10.275  11.763
   23        0.753   1.008  10.304  12.065
   24        0.656   0.831  10.274  11.761
   25        0.753   1.007  10.303  12.063
   26        0.753   1.008  10.304  12.065
   27        0.754   1.014  10.308  12.076
   28        0.655   0.826  10.271  11.752
   29        0.656   0.825  10.271  11.752
   30        0.754   1.010  10.306  12.069
   31        0.753   1.007  10.304  12.064
   32        0.657   0.831  10.275  11.764
   33        0.656   0.831  10.274  11.761
   34        0.754   1.012  10.307  12.073
   35        0.656   0.831  10.274  11.761
   36        0.654   0.820  10.266  11.741
   37        0.754   1.014  10.308  12.075
   38        0.753   1.007  10.303  12.063
   39        0.753   1.008  10.304  12.066
   40        0.655   0.826  10.271  11.752
   41        0.656   0.832  10.275  11.763
   42        0.656   0.831  10.274  11.761
   43        0.754   1.013  10.307  12.074
   44        0.754   1.012  10.307  12.073
   45        0.655   0.826  10.271  11.752
   46        0.655   0.826  10.270  11.751
   47        0.654   0.820  10.266  11.740
   48        0.752   1.003  10.301  12.056
   49        0.752   1.004  10.301  12.057
   50        0.655   0.826  10.271  11.752
   51        0.655   0.826  10.271  11.751
   52        0.753   1.008  10.304  12.066
   53        0.753   1.008  10.304  12.066
   54        0.654   0.821  10.267  11.742
   55        0.654   0.821  10.267  11.741
   56        0.752   1.004  10.301  12.057
   57        0.752   1.003  10.301  12.057
   58        0.655   0.827  10.271  11.753
   59        0.655   0.826  10.271  11.752
   60        0.753   1.008  10.304  12.066
   61        0.753   1.008  10.304  12.065
   62        0.654   0.821  10.267  11.742
   63        0.654   0.821  10.267  11.743
   64        0.324   6.373   3.857  10.554
   65        1.584   3.572   0.000   5.156
   66        1.584   3.571   0.000   5.155
   67        1.577   3.611   0.000   5.188
   68        1.580   3.584   0.000   5.164
   69        1.578   3.615   0.000   5.193
   70        1.578   3.613   0.000   5.191
   71        1.578   3.615   0.000   5.193
   72        1.578   3.614   0.000   5.192
   73        1.580   3.582   0.000   5.162
   74        1.580   3.582   0.000   5.162
   75        1.584   3.574   0.000   5.158
   76        1.584   3.574   0.000   5.158
   77        1.578   3.613   0.000   5.191
   78        1.578   3.613   0.000   5.191
   79        1.580   3.584   0.000   5.164
   80        1.580   3.584   0.000   5.164
   81        1.584   3.572   0.000   5.156
   82        1.584   3.571   0.000   5.155
   83        1.578   3.614   0.000   5.192
   84        1.577   3.611   0.000   5.188
   85        1.580   3.583   0.000   5.163
   86        1.580   3.582   0.000   5.162
   87        1.584   3.573   0.000   5.158
   88        1.584   3.574   0.000   5.159
   89        1.578   3.613   0.000   5.191
   90        1.580   3.584   0.000   5.164
   91        1.580   3.582   0.000   5.162
   92        1.584   3.572   0.000   5.156
   93        1.583   3.569   0.000   5.153
   94        1.584   3.574   0.000   5.158
   95        1.584   3.574   0.000   5.158
   96        1.578   3.613   0.000   5.191
   97        1.578   3.613   0.000   5.190
   98        1.580   3.584   0.000   5.164
   99        1.580   3.584   0.000   5.164
  100        1.584   3.572   0.000   5.156
  101        1.582   3.578   0.000   5.160
  102        1.580   3.583   0.000   5.163
  103        1.578   3.614   0.000   5.192
  104        1.580   3.580   0.000   5.160
  105        1.580   3.582   0.000   5.162
  106        1.584   3.573   0.000   5.158
  107        1.584   3.574   0.000   5.159
  108        1.578   3.613   0.000   5.191
  109        1.578   3.614   0.000   5.192
  110        1.580   3.584   0.000   5.164
  111        1.580   3.584   0.000   5.164
  112        1.578   3.615   0.000   5.193
  113        1.580   3.582   0.000   5.162
  114        1.578   3.614   0.000   5.192
  115        1.578   3.615   0.000   5.193
  116        1.583   3.570   0.000   5.153
  117        1.578   3.613   0.000   5.191
  118        1.578   3.613   0.000   5.190
  119        1.579   3.581   0.000   5.161
  120        1.579   3.581   0.000   5.161
  121        1.584   3.572   0.000   5.156
  122        1.582   3.578   0.000   5.160
  123        1.577   3.613   0.000   5.190
  124        1.577   3.610   0.000   5.188
  125        1.580   3.580   0.000   5.160
  126        1.580   3.582   0.000   5.162
  127        1.582   3.575   0.000   5.157
  128        1.583   3.570   0.000   5.153
  129        1.578   3.613   0.000   5.191
  130        1.578   3.614   0.000   5.192
  131        1.579   3.581   0.000   5.160
  132        1.580   3.579   0.000   5.159
  133        1.584   3.572   0.000   5.156
  134        1.584   3.571   0.000   5.155
  135        1.580   3.583   0.000   5.163
  136        1.584   3.572   0.000   5.156
  137        1.579   3.581   0.000   5.160
  138        1.579   3.581   0.000   5.160
  139        1.578   3.613   0.000   5.191
  140        1.578   3.613   0.000   5.191
  141        1.583   3.570   0.000   5.153
  142        1.583   3.569   0.000   5.153
  143        1.580   3.583   0.000   5.162
  144        1.580   3.583   0.000   5.163
  145        1.577   3.611   0.000   5.188
  146        1.577   3.611   0.000   5.188
  147        1.584   3.571   0.000   5.155
  148        1.584   3.572   0.000   5.156
  149        1.579   3.581   0.000   5.160
  150        1.579   3.581   0.000   5.160
  151        1.578   3.613   0.000   5.191
  152        1.578   3.613   0.000   5.191
  153        1.583   3.570   0.000   5.153
  154        1.583   3.570   0.000   5.153
  155        1.580   3.583   0.000   5.162
  156        1.580   3.582   0.000   5.162
  157        1.577   3.611   0.000   5.188
  158        1.577   3.611   0.000   5.188
  159        1.584   3.572   0.000   5.156
  160        1.584   3.572   0.000   5.156
--------------------------------------------------
tot        196.453 408.802 651.9891257.245
 


 magnetization (x)
 
# of ion       s       p       d       tot
------------------------------------------
    1        0.000   0.000   0.000   0.000
    2        0.000   0.000   0.000   0.000
    3       -0.000  -0.000  -0.000  -0.000
    4        0.000   0.000   0.000   0.000
    5        0.000  -0.000  -0.000   0.000
    6       -0.000   0.000  -0.000  -0.000
    7        0.000   0.000  -0.000  -0.000
    8        0.000  -0.000   0.000   0.000
    9        0.000  -0.000  -0.000  -0.000
   10        0.000   0.000   0.000   0.000
   11        0.000   0.000   0.000   0.000
   12        0.000  -0.000   0.000   0.000
   13       -0.000  -0.000   0.000  -0.000
   14        0.001   0.002   0.000   0.003
   15        0.000   0.000   0.000   0.000
   16        0.000   0.000   0.000   0.000
   17        0.002   0.001   0.000   0.003
   18        0.001   0.001   0.001   0.003
   19        0.001   0.001   0.000   0.002
   20       -0.000  -0.000   0.000   0.000
   21       -0.000   0.000   0.000  -0.000
   22        0.003   0.001   0.000   0.005
   23        0.000   0.000   0.000   0.000
   24        0.000   0.000   0.000   0.000
   25        0.002   0.002   0.000   0.004
   26        0.000  -0.000   0.000   0.000
   27        0.000  -0.000  -0.000  -0.000
   28        0.000   0.000   0.000   0.000
   29        0.002   0.001   0.000   0.003
   30        0.001   0.001   0.001   0.003
   31        0.001   0.001   0.000   0.002
   32        0.003   0.001   0.000   0.005
   33        0.000  -0.000  -0.000   0.000
   34        0.000   0.000   0.000   0.000
   35        0.000  -0.000  -0.000   0.000
   36       -0.000  -0.000   0.000  -0.000
   37        0.000  -0.000  -0.000  -0.000
   38        0.002   0.002   0.000   0.004
   39        0.000  -0.000   0.000   0.000
   40       -0.000   0.000   0.000   0.000
   41        0.000  -0.000   0.000   0.000
   42        0.000   0.000   0.000   0.000
   43        0.000   0.000  -0.000  -0.000
   44       -0.000   0.000  -0.000  -0.000
   45        0.000  -0.000  -0.000   0.000
   46       -0.000  -0.000   0.000   0.000
   47        0.000  -0.000  -0.000   0.000
   48        0.000  -0.000  -0.000  -0.000
   49        0.000   0.000  -0.000   0.000
   50        0.000   0.000   0.000   0.000
   51       -0.000  -0.000   0.000  -0.000
   52        0.000   0.000   0.000   0.000
   53       -0.000   0.000   0.000   0.000
   54        0.000  -0.000  -0.000  -0.000
   55        0.000   0.000   0.000   0.000
   56       -0.000   0.000  -0.000   0.000
   57        0.000   0.000  -0.000   0.000
   58        0.000   0.000  -0.000   0.000
   59        0.000   0.000   0.000   0.000
   60        0.000   0.000  -0.000   0.000
   61        0.000   0.000   0.000   0.000
   62        0.000   0.000   0.000   0.000
   63        0.000   0.000   0.000   0.000
   64        0.018   0.026   2.816   2.860
   65        0.000   0.000   0.000   0.000
   66        0.000   0.000   0.000   0.000
   67        0.000   0.000   0.000   0.000
   68       -0.000  -0.000   0.000  -0.000
   69        0.000   0.000   0.000   0.000
   70        0.000   0.000   0.000   0.000
   71        0.000   0.000   0.000   0.000
   72        0.000   0.000   0.000   0.000
   73        0.000   0.000   0.000   0.000
   74        0.000   0.000   0.000   0.000
   75        0.000   0.000   0.000   0.000
   76        0.000   0.000   0.000   0.000
   77       -0.000  -0.000   0.000  -0.000
   78        0.000  -0.000   0.000  -0.000
   79        0.000  -0.000   0.000  -0.000
   80        0.000  -0.000   0.000  -0.000
   81        0.000   0.000   0.000   0.000
   82        0.000   0.000   0.000   0.000
   83        0.000   0.001   0.000   0.001
   84        0.000   0.000   0.000   0.000
   85       -0.000  -0.000   0.000  -0.000
   86        0.000   0.000   0.000   0.000
   87        0.000   0.001   0.000   0.001
   88        0.000  -0.000   0.000  -0.000
   89        0.000   0.000   0.000   0.000
   90        0.000   0.000   0.000   0.000
   91        0.000   0.000   0.000   0.000
   92        0.000  -0.000   0.000  -0.000
   93        0.000   0.000   0.000   0.000
   94        0.000   0.000   0.000   0.000
   95        0.000   0.000   0.000   0.000
   96        0.000   0.000   0.000   0.000
   97       -0.000  -0.000   0.000  -0.000
   98        0.000  -0.000   0.000  -0.000
   99        0.000  -0.000   0.000  -0.000
  100        0.000  -0.000   0.000  -0.000
  101       -0.001  -0.011   0.000  -0.012
  102        0.000   0.001   0.000   0.001
  103        0.000   0.001   0.000   0.001
  104       -0.001  -0.002   0.000  -0.003
  105        0.000   0.000   0.000   0.000
  106        0.000   0.001   0.000   0.001
  107        0.000  -0.000   0.000  -0.000
  108        0.000   0.000   0.000   0.000
  109        0.000  -0.000   0.000  -0.000
  110        0.000   0.000   0.000   0.000
  111       -0.000  -0.000   0.000  -0.000
  112        0.000   0.000   0.000   0.000
  113        0.000   0.000   0.000   0.000
  114        0.000   0.000   0.000   0.000
  115        0.000   0.000   0.000   0.000
  116        0.000   0.000   0.000   0.000
  117        0.000   0.000   0.000   0.000
  118       -0.000  -0.000   0.000  -0.000
  119        0.000   0.000   0.000   0.000
  120       -0.000   0.000   0.000   0.000
  121        0.000   0.000   0.000   0.000
  122       -0.001  -0.011   0.000  -0.012
  123       -0.001   0.005   0.000   0.003
  124        0.000   0.000   0.000   0.000
  125       -0.001  -0.002   0.000  -0.003
  126        0.000   0.000   0.000   0.000
  127       -0.001  -0.012   0.000  -0.013
  128        0.000   0.000   0.000   0.000
  129        0.000   0.000   0.000   0.000
  130        0.000  -0.000   0.000  -0.000
  131        0.000   0.000   0.000   0.000
  132        0.000   0.001   0.000   0.001
  133        0.000   0.000   0.000   0.000
  134        0.000   0.000   0.000   0.000
  135        0.000   0.001   0.000   0.001
  136        0.000  -0.000   0.000  -0.000
  137       -0.000  -0.000   0.000  -0.000
  138        0.000   0.000   0.000   0.000
  139        0.000   0.000   0.000   0.000
  140        0.000   0.000   0.000   0.000
  141        0.000   0.000   0.000   0.000
  142        0.000   0.000   0.000   0.000
  143        0.000  -0.000   0.000  -0.000
  144       -0.000  -0.000   0.000  -0.000
  145        0.000   0.000   0.000   0.000
  146        0.000   0.000   0.000   0.000
  147        0.000   0.000   0.000   0.000
  148        0.000   0.000   0.000   0.000
  149       -0.000   0.000   0.000   0.000
  150        0.000   0.000   0.000   0.000
  151        0.000  -0.000   0.000  -0.000
  152       -0.000  -0.000   0.000  -0.000
  153        0.000   0.000   0.000   0.000
  154        0.000   0.000   0.000   0.000
  155        0.000   0.000   0.000   0.000
  156        0.000   0.000   0.000   0.000
  157        0.000   0.000   0.000   0.000
  158       -0.000  -0.000   0.000  -0.000
  159        0.000   0.000   0.000   0.000
  160        0.000  -0.000   0.000  -0.000
--------------------------------------------------
tot          0.032   0.015   2.820   2.866
 

 total amount of memory used by VASP MPI-rank0   112132. kBytes
=======================================================================

   base      :      30000. kBytes
   nonlr-proj:      44385. kBytes
   fftplans  :       1403. kBytes
   grid      :      18679. kBytes
   one-center:       4976. kBytes
   HF        :        194. kBytes
   wavefun   :      12495. kBytes
 
  
  
 General timing and accounting informations for this job:
 ========================================================
  
                  Total CPU time used (sec):     4432.834
                            User time (sec):     4281.119
                          System time (sec):      151.715
                         Elapsed time (sec):     4450.914
  
                   Maximum memory used (kb):      651560.
                   Average memory used (kb):           0.
  
                          Minor page faults:     23877700
                          Major page faults:           49
                 Voluntary context switches:        52873
