 vasp.5.4.4.18Apr17-6-g9f103f2a35 (build Jun 06 2017 17:32:29) complex          
  
 executed on      LLNL_Quartz_ifc date 2021.09.07  08:09:36
 running on  288 total cores
 distrk:  each k-point on  288 cores,    1 groups
 distr:  one band on NCORES_PER_BAND=   8 cores,   36 groups


--------------------------------------------------------------------------------------------------------


 INCAR:
 POTCAR:   PAW_PBE Ga_d 06Sep2000                 
 POTCAR:   PAW_PBE Ir 06Sep2000                   
 POTCAR:   PAW_PBE O 08Apr2002                    

 ----------------------------------------------------------------------------- 
|                                                                             |
|           W    W    AA    RRRRR   N    N  II  N    N   GGGG   !!!           |
|           W    W   A  A   R    R  NN   N  II  NN   N  G    G  !!!           |
|           W    W  A    A  R    R  N N  N  II  N N  N  G       !!!           |
|           W WW W  AAAAAA  RRRRR   N  N N  II  N  N N  G  GGG   !            |
|           WW  WW  A    A  R   R   N   NN  II  N   NN  G    G                |
|           W    W  A    A  R    R  N    N  II  N    N   GGGG   !!!           |
|                                                                             |
|      For optimal performance we recommend to set                            |
|        NCORE= 4 - approx SQRT( number of cores)                             |
|      NCORE specifies how many cores store one orbital (NPAR=cpu/NCORE).     |
|      This setting can  greatly improve the performance of VASP for DFT.     |
|      The default,   NCORE=1            might be grossly inefficient         |
|      on modern multi-core architectures or massively parallel machines.     |
|      Do your own testing !!!!                                               |
|      Unfortunately you need to use the default for GW and RPA calculations. |
|      (for HF NCORE is supported but not extensively tested yet)             |
|                                                                             |
 ----------------------------------------------------------------------------- 

 POTCAR:   PAW_PBE Ga_d 06Sep2000                 
   VRHFIN =Ga: s2p1                                                             
   LEXCH  = PE                                                                  
   EATOM  =  2149.0616 eV,  157.9516 Ry                                         
                                                                                
   TITEL  = PAW_PBE Ga_d 06Sep2000                                              
   LULTRA =        F    use ultrasoft PP ?                                      
   IUNSCR =        1    unscreen: 0-lin 1-nonlin 2-no                           
   RPACOR =    2.000    partial core radius                                     
   POMASS =   69.723; ZVAL   =   13.000    mass and valenz                      
   RCORE  =    2.300    outmost cutoff radius                                   
   RWIGS  =    2.300; RWIGS  =    1.217    wigner-seitz radius (au A)           
   ENMAX  =  282.697; ENMIN  =  212.022 eV                                      
   ICORE  =        3    local potential                                         
   LCOR   =        T    correct aug charges                                     
   LPAW   =        T    paw PP                                                  
   EAUG   =  490.690                                                            
   DEXC   =    -.001                                                            
   RMAX   =    2.742    core radius for proj-oper                               
   RAUG   =    1.300    factor for augmentation sphere                          
   RDEP   =    2.413    radius for radial grids                                 
   QCUT   =   -4.558; QGAM   =    9.117    optimization parameters              
                                                                                
   Description                                                                  
     l     E      TYP  RCUT    TYP  RCUT                                        
     2   .000     23  2.300                                                     
     2  -.400     23  2.300                                                     
     0   .000     23  2.300                                                     
     0   .000     23  2.300                                                     
     1   .000     23  2.300                                                     
     1   .000     23  2.300                                                     
     3  -.100      7  2.300                                                     
  local pseudopotential read in
  partial core-charges read in
  atomic valenz-charges read in
  non local Contribution for L=           2  read in
    real space projection operators read in
  non local Contribution for L=           2  read in
    real space projection operators read in
  non local Contribution for L=           0  read in
    real space projection operators read in
  non local Contribution for L=           0  read in
    real space projection operators read in
  non local Contribution for L=           1  read in
    real space projection operators read in
  non local Contribution for L=           1  read in
    real space projection operators read in
    PAW grid and wavefunctions read in
 
   number of l-projection  operators is LMAX  =           6
   number of lm-projection operators is LMMAX =          18
 
 POTCAR:   PAW_PBE Ir 06Sep2000                   
   VRHFIN =Ir: s1d8                                                             
   LEXCH  = PE                                                                  
   EATOM  =   560.2052 eV,   41.1739 Ry                                         
                                                                                
   TITEL  = PAW_PBE Ir 06Sep2000                                                
   LULTRA =        F    use ultrasoft PP ?                                      
   IUNSCR =        1    unscreen: 0-lin 1-nonlin 2-no                           
   RPACOR =    2.250    partial core radius                                     
   POMASS =  192.220; ZVAL   =    9.000    mass and valenz                      
   RCORE  =    2.600    outmost cutoff radius                                   
   RWIGS  =    2.690; RWIGS  =    1.423    wigner-seitz radius (au A)           
   ENMAX  =  210.870; ENMIN  =  158.153 eV                                      
   RCLOC  =    1.857    cutoff for local pot                                    
   LCOR   =        T    correct aug charges                                     
   LPAW   =        T    paw PP                                                  
   EAUG   =  318.962                                                            
   DEXC   =    -.027                                                            
   RMAX   =    3.175    core radius for proj-oper                               
   RAUG   =    1.300    factor for augmentation sphere                          
   RDEP   =    2.748    radius for radial grids                                 
   QCUT   =   -3.937; QGAM   =    7.874    optimization parameters              
                                                                                
   Description                                                                  
     l     E      TYP  RCUT    TYP  RCUT                                        
     2   .000     23  2.600                                                     
     2   .000     23  2.600                                                     
     0   .000     23  2.600                                                     
     0   .000     23  2.600                                                     
     1  -.200     23  2.600                                                     
     1  1.500     23  2.600                                                     
     3   .000      7   .000                                                     
  local pseudopotential read in
  partial core-charges read in
  atomic valenz-charges read in
  non local Contribution for L=           2  read in
    real space projection operators read in
  non local Contribution for L=           2  read in
    real space projection operators read in
  non local Contribution for L=           0  read in
    real space projection operators read in
  non local Contribution for L=           0  read in
    real space projection operators read in
  non local Contribution for L=           1  read in
    real space projection operators read in
  non local Contribution for L=           1  read in
    real space projection operators read in
    PAW grid and wavefunctions read in
 
   number of l-projection  operators is LMAX  =           6
   number of lm-projection operators is LMMAX =          18
 
 POTCAR:   PAW_PBE O 08Apr2002                    
   VRHFIN =O: s2p4                                                              
   LEXCH  = PE                                                                  
   EATOM  =   432.3788 eV,   31.7789 Ry                                         
                                                                                
   TITEL  = PAW_PBE O 08Apr2002                                                 
   LULTRA =        F    use ultrasoft PP ?                                      
   IUNSCR =        0    unscreen: 0-lin 1-nonlin 2-no                           
   RPACOR =     .000    partial core radius                                     
   POMASS =   16.000; ZVAL   =    6.000    mass and valenz                      
   RCORE  =    1.520    outmost cutoff radius                                   
   RWIGS  =    1.550; RWIGS  =     .820    wigner-seitz radius (au A)           
   ENMAX  =  400.000; ENMIN  =  300.000 eV                                      
   ICORE  =        2    local potential                                         
   LCOR   =        T    correct aug charges                                     
   LPAW   =        T    paw PP                                                  
   EAUG   =  605.392                                                            
   DEXC   =     .000                                                            
   RMAX   =    2.264    core radius for proj-oper                               
   RAUG   =    1.300    factor for augmentation sphere                          
   RDEP   =    1.550    radius for radial grids                                 
   QCUT   =   -5.520; QGAM   =   11.041    optimization parameters              
                                                                                
   Description                                                                  
     l     E      TYP  RCUT    TYP  RCUT                                        
     0   .000     23  1.200                                                     
     0  -.700     23  1.200                                                     
     1   .000     23  1.520                                                     
     1   .600     23  1.520                                                     
     2   .000      7  1.500                                                     
  local pseudopotential read in
  atomic valenz-charges read in
  non local Contribution for L=           0  read in
    real space projection operators read in
  non local Contribution for L=           0  read in
    real space projection operators read in
  non local Contribution for L=           1  read in
    real space projection operators read in
  non local Contribution for L=           1  read in
    real space projection operators read in
    PAW grid and wavefunctions read in
 
   number of l-projection  operators is LMAX  =           4
   number of lm-projection operators is LMMAX =           8
 
 Optimization of the real space projectors (new method)

 maximal supplied QI-value         = 16.25
 optimisation between [QCUT,QGAM] = [ 10.24, 20.48] = [ 29.35,117.42] Ry 
 Optimized for a Real-space Cutoff    1.38 Angstroem

   l    n(q)    QCUT    max X(q) W(low)/X(q) W(high)/X(q)  e(spline) 
   2      7    10.239     6.328    0.33E-04    0.68E-04    0.30E-07
   2      7    10.239     9.625    0.20E-03    0.23E-03    0.80E-07
   0      8    10.239     9.711    0.17E-04    0.17E-04    0.13E-07
   0      8    10.239    32.764    0.56E-04    0.14E-03    0.62E-07
   1      8    10.239     7.413    0.78E-04    0.28E-04    0.38E-07
   1      8    10.239    31.472    0.43E-03    0.30E-03    0.73E-07
 Optimization of the real space projectors (new method)

 maximal supplied QI-value         = 14.36
 optimisation between [QCUT,QGAM] = [ 10.20, 20.39] = [ 29.12,116.47] Ry 
 Optimized for a Real-space Cutoff    1.70 Angstroem

   l    n(q)    QCUT    max X(q) W(low)/X(q) W(high)/X(q)  e(spline) 
   2      9    10.197     3.989    0.32E-04    0.18E-04    0.62E-07
   2      9    10.197    41.237    0.35E-03    0.14E-03    0.40E-06
   0     10    10.197    14.164    0.17E-04    0.12E-05    0.12E-07
   0     10    10.197    44.257    0.49E-04    0.25E-04    0.27E-06
   1     10    10.197     7.849    0.10E-04    0.77E-05    0.25E-07
   1     10    10.197    11.007    0.35E-04    0.49E-04    0.91E-07
 Optimization of the real space projectors (new method)

 maximal supplied QI-value         = 24.76
 optimisation between [QCUT,QGAM] = [ 10.15, 20.30] = [ 28.85,115.39] Ry 
 Optimized for a Real-space Cutoff    1.30 Angstroem

   l    n(q)    QCUT    max X(q) W(low)/X(q) W(high)/X(q)  e(spline) 
   0      8    10.150     4.192    0.55E-04    0.58E-04    0.78E-07
   0      8    10.150     8.473    0.46E-03    0.68E-03    0.23E-06
   1      7    10.150     2.474    0.11E-03    0.93E-04    0.33E-07
   1      7    10.150     3.912    0.46E-03    0.50E-03    0.15E-06
 PAW_PBE Ga_d 06Sep2000                 :
 energy of atom  1       EATOM=-2149.0616
 kinetic energy error for atom=    0.0101 (will be added to EATOM!!)
 PAW_PBE Ir 06Sep2000                   :
 energy of atom  2       EATOM= -560.2052
 kinetic energy error for atom=    0.0041 (will be added to EATOM!!)
 PAW_PBE O 08Apr2002                    :
 energy of atom  3       EATOM= -432.3788
 kinetic energy error for atom=    0.1156 (will be added to EATOM!!)
 
 
 POSCAR: Ga Ir  O                                
  positions in direct lattice
  velocities in cartesian coordinates
 exchange correlation table for  LEXCH =        8
   RHO(1)=    0.500       N(1)  =     2000
   RHO(2)=  100.500       N(2)  =     4000
 


--------------------------------------------------------------------------------------------------------


 ion  position               nearest neighbor table
   1  0.090  1.000  0.396-  99 1.83 140 1.83 108 1.83 106 1.86
   2  0.411  0.625  0.604-  85 1.83  72 1.83 157 1.83 121 1.86
   3  0.589  0.625  0.896-  86 1.83  71 1.83 158 1.83 136 1.86
   4  0.160  0.625  0.655-  78 1.93  80 1.93 149 1.94 121 2.01  75 2.08 154 2.08
   5  0.841  0.625  0.844-  77 1.93  79 1.94 150 1.94 136 2.01  76 2.07 153 2.08
   6  0.910  0.500  0.604-  90 1.83  78 1.83 118 1.83  76 1.86
   7  0.090  0.500  0.896-  68 1.82  77 1.83 117 1.83  75 1.86
   8  0.840  0.375  0.844- 117 1.93 119 1.94  79 1.94  65 2.01  76 2.07 116 2.08
   9  0.911  0.250  0.604- 131 1.83 118 1.83  97 1.83 116 1.86
  10  0.089  0.250  0.896- 132 1.83 117 1.83  96 1.83  93 1.86
  11  0.841  0.625  0.344-  89 1.93  90 1.94 138 1.94  81 2.01  88 2.07 141 2.08
  12  0.660  1.000  0.657- 102 1.93 114 1.93 155 1.94  95 2.01 160 2.06 133 2.07
  13  0.159  0.625  0.156-  70 1.93  68 1.94 137 1.94  82 2.01  87 2.07 142 2.08
  14  0.088  0.250  0.398- 120 1.82 108 1.83 129 1.83 127 1.86
  15  0.911  0.250  0.104- 119 1.83 130 1.83 109 1.83 128 1.86
  16  0.841  0.375  0.344- 129 1.93  90 1.94 131 1.94  92 2.00  88 2.07 128 2.08
  17  0.158  0.376  0.155- 130 1.92  68 1.93 132 1.94 122 2.02  87 2.07 127 2.08  64 3.08
  18  0.592  0.377  0.397- 123 1.81 135 1.82  83 1.83  92 1.86
  19  0.411  0.376  0.103-  91 1.82  69 1.83 124 1.83 122 1.87
  20  0.660  0.250  0.156- 126 1.94 105 1.94 124 1.94 128 2.01  92 2.08 100 2.08
  21  0.411  0.625  0.104-  73 1.83  69 1.83 145 1.83  82 1.86
  22  0.341  0.502  0.344- 125 1.92  85 1.92  83 1.94  87 2.02  82 2.06 122 2.06  64 3.06
  23  0.590  0.625  0.396-  74 1.83  83 1.83 146 1.83  81 1.86
  24  0.341  0.000  0.844- 115 1.93 156 1.93 113 1.94  94 2.01 134 2.07 159 2.07
  25  0.411  0.125  0.604- 104 1.82  84 1.83 114 1.83 134 1.87
  26  0.589  0.125  0.896- 105 1.83 115 1.83  67 1.83 133 1.86
  27  0.910  0.999  0.103-  98 1.82 139 1.83 109 1.83 107 1.86
  28  0.841  0.125  0.344- 108 1.93 110 1.94 131 1.94 100 2.00 107 2.07 128 2.08
  29  0.158  0.124  0.155- 109 1.92 111 1.93 132 1.94 101 2.02 106 2.07 127 2.08  64 3.08
  30  0.592  0.123  0.397- 123 1.81 102 1.83 103 1.83 100 1.86
  31  0.412  0.125  0.103- 113 1.82 112 1.83 124 1.83 101 1.87
  32  0.341  0.998  0.344- 104 1.92 144 1.92 103 1.94 106 2.02 147 2.06 101 2.06  64 3.06
  33  0.660  1.000  0.156- 112 1.93 143 1.93 105 1.93 107 2.01 100 2.06 148 2.07
  34  0.090  0.500  0.396-  80 1.83  89 1.83 129 1.83  87 1.86
  35  0.660  0.500  0.156-  69 1.93  86 1.93 126 1.93  88 2.01  92 2.06  81 2.07
  36  0.660  0.250  0.655-  84 1.93 135 1.94 102 1.94 116 2.01 133 2.09  65 2.09
  37  0.910  0.501  0.103-  79 1.82  70 1.83 130 1.83  88 1.86
  38  0.411  0.375  0.604- 125 1.82  84 1.83  72 1.83  66 1.87
  39  0.589  0.375  0.896- 126 1.83  71 1.83  67 1.83  65 1.86
  40  0.160  0.375  0.656- 118 1.93  80 1.94 120 1.94  66 2.01  75 2.07  93 2.08
  41  0.660  0.501  0.657- 135 1.93  72 1.93  74 1.94  76 2.01 136 2.06  65 2.07
  42  0.341  0.500  0.844-  71 1.93  73 1.93  91 1.94  75 2.01  66 2.07 121 2.07
  43  0.090  1.000  0.896- 111 1.82 152 1.83  96 1.83  94 1.86
  44  0.910  0.000  0.604- 110 1.83 151 1.83  97 1.83  95 1.86
  45  0.840  0.125  0.844-  96 1.93  98 1.94 119 1.94 133 2.01  95 2.07 116 2.08
  46  0.160  0.125  0.656-  97 1.93  99 1.94 120 1.94 134 2.01  94 2.07  93 2.08
  47  0.340  0.250  0.845-  67 1.93 113 1.94  91 1.94  93 2.01  66 2.08 134 2.08
  48  0.088  0.750  0.396- 149 1.83 140 1.83  89 1.83 142 1.86
  49  0.911  0.750  0.104- 150 1.83  70 1.83 139 1.83 141 1.86
  50  0.841  0.875  0.344- 140 1.93 110 1.94 138 1.94 148 2.01 107 2.07 141 2.08
  51  0.159  0.875  0.156- 139 1.93 111 1.94 137 1.94 147 2.01 106 2.07 142 2.08
  52  0.590  0.875  0.396- 103 1.83 155 1.83 146 1.83 148 1.86
  53  0.411  0.875  0.104- 156 1.83 112 1.83 145 1.83 147 1.86
  54  0.340  0.750  0.344-  85 1.93 144 1.93 146 1.94 142 2.01 147 2.08  82 2.08
  55  0.660  0.750  0.155- 145 1.93 143 1.94  86 1.94 141 2.01 148 2.08  81 2.08
  56  0.089  0.750  0.896- 137 1.83 152 1.83  77 1.83 154 1.86
  57  0.911  0.750  0.604- 138 1.83 151 1.83  78 1.83 153 1.86
  58  0.841  0.875  0.844- 152 1.93  98 1.94 150 1.94 160 2.01  95 2.07 153 2.08
  59  0.159  0.875  0.655- 151 1.93  99 1.93 149 1.94 159 2.01  94 2.08 154 2.08
  60  0.589  0.875  0.896- 143 1.83 115 1.83 158 1.83 160 1.86
  61  0.411  0.875  0.604- 144 1.83 114 1.83 157 1.83 159 1.86
  62  0.340  0.750  0.844- 158 1.94 156 1.94  73 1.94 154 2.01 159 2.08 121 2.08
  63  0.660  0.750  0.655- 157 1.93 155 1.94  74 1.94 153 2.01 136 2.08 160 2.08
  64  0.339  0.250  0.336- 123 2.03 127 2.04 125 2.05 104 2.05 122 2.07 101 2.07  32 3.06  22 3.06
                            17 3.08  29 3.08
  65  0.673  0.375  0.781-  39 1.86   8 2.01  41 2.07  36 2.09
  66  0.328  0.376  0.720-  38 1.87  40 2.01  42 2.07  47 2.08
  67  0.503  0.250  0.873-  39 1.83  26 1.83  47 1.93
  68  0.164  0.500  0.052-   7 1.82  17 1.93  13 1.94
  69  0.497  0.500  0.128-  19 1.83  21 1.83  35 1.93
  70  0.997  0.625  0.127-  37 1.83  49 1.83  13 1.93
  71  0.503  0.500  0.872-   3 1.83  39 1.83  42 1.93
  72  0.498  0.500  0.629-   2 1.83  38 1.83  41 1.93
  73  0.336  0.625  0.947-  21 1.83  42 1.93  62 1.94
  74  0.664  0.625  0.553-  23 1.83  63 1.94  41 1.94
  75  0.173  0.500  0.781-   7 1.86  42 2.01  40 2.07   4 2.08
  76  0.828  0.500  0.720-   6 1.86  41 2.01   5 2.07   8 2.07
  77  0.003  0.625  0.872-   7 1.83  56 1.83   5 1.93
  78  0.997  0.624  0.628-   6 1.83  57 1.83   4 1.93
  79  0.835  0.500  0.947-  37 1.82   5 1.94   8 1.94
  80  0.164  0.500  0.553-  34 1.83   4 1.93  40 1.94
  81  0.673  0.625  0.281-  23 1.86  11 2.01  35 2.07  55 2.08
  82  0.328  0.625  0.219-  21 1.86  13 2.01  22 2.06  54 2.08
  83  0.504  0.500  0.372-  23 1.83  18 1.83  22 1.94
  84  0.497  0.250  0.628-  38 1.83  25 1.83  36 1.93
  85  0.336  0.626  0.448-   2 1.83  22 1.92  54 1.93
  86  0.664  0.625  0.053-   3 1.83  35 1.93  55 1.94
  87  0.172  0.501  0.280-  34 1.86  22 2.02  13 2.07  17 2.07
  88  0.828  0.500  0.219-  37 1.86  35 2.01  11 2.07  16 2.07
  89  0.003  0.624  0.372-  34 1.83  48 1.83  11 1.93
  90  0.835  0.500  0.447-   6 1.83  11 1.94  16 1.94
  91  0.336  0.376  0.947-  19 1.82  42 1.94  47 1.94
  92  0.673  0.376  0.280-  18 1.86  16 2.00  35 2.06  20 2.08
  93  0.173  0.250  0.781-  10 1.86  47 2.01  40 2.08  46 2.08
  94  0.172  0.000  0.781-  43 1.86  24 2.01  46 2.07  59 2.08
  95  0.828  1.000  0.720-  44 1.86  12 2.01  58 2.07  45 2.07
  96  0.003  0.124  0.873-  43 1.83  10 1.83  45 1.93
  97  0.997  0.124  0.628-  44 1.83   9 1.83  46 1.93
  98  0.835  1.000  0.947-  27 1.82  58 1.94  45 1.94
  99  0.164  0.000  0.553-   1 1.83  59 1.93  46 1.94
 100  0.673  0.124  0.280-  30 1.86  28 2.00  33 2.06  20 2.08
 101  0.327  0.120  0.218-  31 1.87  29 2.02  32 2.06  64 2.07
 102  0.666  0.124  0.554-  30 1.83  12 1.93  36 1.94
 103  0.504  1.000  0.372-  52 1.83  30 1.83  32 1.94
 104  0.336  0.120  0.448-  25 1.82  32 1.92  64 2.05
 105  0.664  0.125  0.053-  26 1.83  33 1.93  20 1.94
 106  0.172  0.999  0.280-   1 1.86  32 2.02  51 2.07  29 2.07
 107  0.828  1.000  0.219-  27 1.86  33 2.01  50 2.07  28 2.07
 108  0.003  0.124  0.373-   1 1.83  14 1.83  28 1.93
 109  0.996  0.124  0.127-  27 1.83  15 1.83  29 1.92
 110  0.835  0.000  0.447-  44 1.83  50 1.94  28 1.94
 111  0.164  1.000  0.052-  43 1.82  29 1.93  51 1.94
 112  0.497  1.000  0.128-  31 1.83  53 1.83  33 1.93
 113  0.336  0.124  0.947-  31 1.82  24 1.94  47 1.94
 114  0.498  1.000  0.629-  61 1.83  25 1.83  12 1.93
 115  0.503  0.000  0.872-  60 1.83  26 1.83  24 1.93
 116  0.828  0.250  0.719-   9 1.86  36 2.01  45 2.08   8 2.08
 117  0.003  0.376  0.873-   7 1.83  10 1.83   8 1.93
 118  0.997  0.376  0.628-   6 1.83   9 1.83  40 1.93
 119  0.837  0.250  0.947-  15 1.83   8 1.94  45 1.94
 120  0.164  0.250  0.554-  14 1.82  40 1.94  46 1.94
 121  0.328  0.625  0.719-   2 1.86   4 2.01  42 2.07  62 2.08
 122  0.327  0.380  0.218-  19 1.87  17 2.02  22 2.06  64 2.07
 123  0.511  0.250  0.377-  18 1.81  30 1.81  64 2.03
 124  0.497  0.250  0.129-  19 1.83  31 1.83  20 1.94
 125  0.336  0.380  0.448-  38 1.82  22 1.92  64 2.05
 126  0.664  0.376  0.053-  39 1.83  35 1.93  20 1.94
 127  0.168  0.250  0.279-  14 1.86  64 2.04  17 2.08  29 2.08
 128  0.828  0.250  0.219-  15 1.86  20 2.01  16 2.08  28 2.08
 129  0.003  0.376  0.373-  34 1.83  14 1.83  16 1.93
 130  0.996  0.376  0.127-  37 1.83  15 1.83  17 1.92
 131  0.837  0.250  0.447-   9 1.83  16 1.94  28 1.94
 132  0.164  0.250  0.053-  10 1.83  17 1.94  29 1.94
 133  0.673  0.125  0.781-  26 1.86  45 2.01  12 2.07  36 2.09
 134  0.328  0.125  0.719-  25 1.87  46 2.01  24 2.07  47 2.08
 135  0.666  0.377  0.554-  18 1.82  41 1.93  36 1.94
 136  0.673  0.625  0.781-   3 1.86   5 2.01  41 2.06  63 2.08
 137  0.164  0.750  0.053-  56 1.83  51 1.94  13 1.94
 138  0.837  0.750  0.447-  57 1.83  50 1.94  11 1.94
 139  0.997  0.876  0.127-  27 1.83  49 1.83  51 1.93
 140  0.003  0.876  0.372-   1 1.83  48 1.83  50 1.93
 141  0.828  0.750  0.219-  49 1.86  55 2.01  11 2.08  50 2.08
 142  0.172  0.750  0.281-  48 1.86  54 2.01  51 2.08  13 2.08
 143  0.664  0.876  0.053-  60 1.83  33 1.93  55 1.94
 144  0.336  0.875  0.448-  61 1.83  32 1.92  54 1.93
 145  0.497  0.750  0.128-  53 1.83  21 1.83  55 1.93
 146  0.503  0.750  0.372-  52 1.83  23 1.83  54 1.94
 147  0.328  0.875  0.219-  53 1.86  51 2.01  32 2.06  54 2.08
 148  0.673  0.875  0.281-  52 1.86  50 2.01  33 2.07  55 2.08
 149  0.163  0.750  0.553-  48 1.83  59 1.94   4 1.94
 150  0.836  0.750  0.947-  49 1.83  58 1.94   5 1.94
 151  0.997  0.876  0.628-  44 1.83  57 1.83  59 1.93
 152  0.003  0.876  0.872-  43 1.83  56 1.83  58 1.93
 153  0.828  0.750  0.719-  57 1.86  63 2.01   5 2.08  58 2.08
 154  0.172  0.750  0.781-  56 1.86  62 2.01  59 2.08   4 2.08
 155  0.664  0.875  0.553-  52 1.83  63 1.94  12 1.94
 156  0.336  0.876  0.947-  53 1.83  24 1.93  62 1.94
 157  0.498  0.750  0.628-  61 1.83   2 1.83  63 1.93
 158  0.503  0.750  0.872-  60 1.83   3 1.83  62 1.94
 159  0.328  0.875  0.719-  61 1.86  59 2.01  24 2.07  62 2.08
 160  0.673  0.875  0.781-  60 1.86  58 2.01  12 2.06  63 2.08
 
  LATTYP: Found a simple monoclinic cell.
 ALAT       =    14.6889751464
 B/A-ratio  =     0.8259161174
 C/A-ratio  =     1.5972413798
 COS(beta)  =    -0.9171837574
  
  Lattice vectors:
  
 A1 = ( -11.8609006218,   0.0000000000,  -8.6651617002)
 A2 = (   0.0000000000, -12.1318613217,   0.0000000000)
 A3 = (  11.8609006218,   0.0000000000,  20.2429474736)


Analysis of symmetry for initial positions (statically):
=====================================================================
 Subroutine PRICEL returns:
 Original cell was already a primitive cell.
 

 Routine SETGRP: Setting up the symmetry group for a 
 simple monoclinic supercell.


 Subroutine GETGRP returns: Found  1 space group operations
 (whereof  1 operations were pure point group operations)
 out of a pool of  4 trial point group operations.


The static configuration has the point symmetry C_1 .


Analysis of symmetry for dynamics (positions and initial velocities):
=====================================================================
 Subroutine PRICEL returns:
 Original cell was already a primitive cell.
 

 Routine SETGRP: Setting up the symmetry group for a 
 simple monoclinic supercell.


 Subroutine GETGRP returns: Found  1 space group operations
 (whereof  1 operations were pure point group operations)
 out of a pool of  4 trial point group operations.


The dynamic configuration has the point symmetry C_1 .


Analysis of structural, dynamic, and magnetic symmetry:
=====================================================================
 Subroutine PRICEL returns:
 Original cell was already a primitive cell.
 

 Routine SETGRP: Setting up the symmetry group for a 
 simple monoclinic supercell.


 Subroutine GETGRP returns: Found  1 space group operations
 (whereof  1 operations were pure point group operations)
 out of a pool of  4 trial point group operations.


The magnetic configuration has the point symmetry C_1 .


 Subroutine INISYM returns: Found  1 space group operations
 (whereof  1 operations are pure point group operations),
 and found     1 'primitive' translations

 
 
 KPOINTS: KPOINTS created by Atomic Simulation Env
  k-points in reciprocal lattice
Space group operators:
 irot       det(A)        alpha          n_x          n_y          n_z        tau_x        tau_y        tau_z
    1     1.000000     0.000000     1.000000     0.000000     0.000000     0.000000     0.000000     0.000000

 ----------------------------------------------------------------------------- 
|                                                                             |
|           W    W    AA    RRRRR   N    N  II  N    N   GGGG   !!!           |
|           W    W   A  A   R    R  NN   N  II  NN   N  G    G  !!!           |
|           W    W  A    A  R    R  N N  N  II  N N  N  G       !!!           |
|           W WW W  AAAAAA  RRRRR   N  N N  II  N  N N  G  GGG   !            |
|           WW  WW  A    A  R   R   N   NN  II  N   NN  G    G                |
|           W    W  A    A  R    R  N    N  II  N    N   GGGG   !!!           |
|                                                                             |
|      Your generating k-point grid is not commensurate to the symmetry       |
|      of the lattice.  This can cause   slow convergence with respect        |
|      to k-points for HF type calculations                                   |
|      suggested SOLUTIONS:                                                   |
|       ) if not already the case, use automatic k-point generation           |
|       ) shift your grid to Gamma (G) (e.g. required for hex or fcc lattice) |
|                                                                             |
 ----------------------------------------------------------------------------- 

 
 Subroutine IBZKPT_HF returns following result:
 ==============================================
 
 Found      2 k-points in 1st BZ
 the following      2 k-points will be used (e.g. in the exchange kernel)
 Following reciprocal coordinates:   # in IRBZ
  0.250000  0.250000  0.250000    0.50000000   1 t-inv F
 -0.250000 -0.250000 -0.250000    0.50000000   1 t-inv T


--------------------------------------------------------------------------------------------------------




 Dimension of arrays:
   k-points           NKPTS =      1   k-points in BZ     NKDIM =      2   number of bands    NBANDS=    936
   number of dos      NEDOS =    301   number of ions     NIONS =    160
   non local maximal  LDIM  =      6   non local SUM 2l+1 LMDIM =     18
   total plane-waves  NPLWV = 216000
   max r-space proj   IRMAX =   2708   max aug-charges    IRDMAX=   9574
   dimension x,y,z NGX =    60 NGY =   60 NGZ =   60
   dimension x,y,z NGXF=   120 NGYF=  120 NGZF=  120
   support grid    NGXF=   120 NGYF=  120 NGZF=  120
   ions per type =              63   1  96
   NGX,Y,Z   is equivalent  to a cutoff of   8.17,  8.22,  8.62 a.u.
   NGXF,Y,Z  is equivalent  to a cutoff of  16.33, 16.44, 17.23 a.u.

 SYSTEM =  unknown system                          
 POSCAR =  Ga Ir  O                                

 Startparameter for this run:
   NWRITE =      2    write-flag & timer
   PREC   = normal    normal or accurate (medium, high low for compatibility)
   ISTART =      1    job   : 0-new  1-cont  2-samecut
   ICHARG =      0    charge: 1-file 2-atom 10-const
   ISPIN  =      2    spin polarized calculation?
   LNONCOLLINEAR =      F non collinear calculations
   LSORBIT =      F    spin-orbit coupling
   INIWAV =      1    electr: 0-lowe 1-rand  2-diag
   LASPH  =      F    aspherical Exc in radial PAW
   METAGGA=      F    non-selfconsistent MetaGGA calc.

 Electronic Relaxation 1
   ENCUT  =  400.0 eV  29.40 Ry    5.42 a.u.  19.92 19.78 18.88*2*pi/ulx,y,z
   ENINI  =  400.0     initial cutoff
   ENAUG  =  605.4 eV  augmentation charge cutoff
   NELM   =     40;   NELMIN=  2; NELMDL=  0     # of ELM steps 
   EDIFF  = 0.1E-03   stopping-criterion for ELM
   LREAL  =      T    real-space projection
   NLSPLINE    = F    spline interpolate recip. space projectors
   LCOMPAT=      F    compatible to vasp.4.4
   GGA_COMPAT  = T    GGA compatible to vasp.4.4-vasp.4.6
   LMAXPAW     = -100 max onsite density
   LMAXMIX     =    2 max onsite mixed and CHGCAR
   VOSKOWN=      0    Vosko Wilk Nusair interpolation
   ROPT   =   -0.00050  -0.00050  -0.00050
 Ionic relaxation
   EDIFFG = 0.1E-02   stopping-criterion for IOM
   NSW    =     45    number of steps for IOM
   NBLOCK =      1;   KBLOCK =     45    inner block; outer block 
   IBRION =      2    ionic relax: 0-MD 1-quasi-New 2-CG
   NFREE  =      1    steps in history (QN), initial steepest desc. (CG)
   ISIF   =      0    stress and relaxation
   IWAVPR =     11    prediction:  0-non 1-charg 2-wave 3-comb
   ISYM   =      3    0-nonsym 1-usesym 2-fastsym
   LCORR  =      T    Harris-Foulkes like correction to forces

   POTIM  = 0.3500    time-step for ionic-motion
   TEIN   =    0.0    initial temperature
   TEBEG  =    0.0;   TEEND  =   0.0 temperature during run
   SMASS  =  -3.00    Nose mass-parameter (am)
   estimated Nose-frequenzy (Omega)   =  0.10E-29 period in steps =****** mass=  -0.341E-26a.u.
   SCALEE = 1.0000    scale energy and forces
   NPACO  =    256;   APACO  = 16.0  distance and # of slots for P.C.
   PSTRESS=    0.0 pullay stress

  Mass of Ions in am
   POMASS =  69.72192.22 16.00
  Ionic Valenz
   ZVAL   =  13.00  9.00  6.00
  Atomic Wigner-Seitz radii
   RWIGS  =  -1.00 -1.00 -1.00
  virtual crystal weights 
   VCA    =   1.00  1.00  1.00
   NELECT =    1404.0000    total number of electrons
   NUPDOWN=      -1.0000    fix difference up-down

 DOS related values:
   EMIN   =  10.00;   EMAX   =-10.00  energy-range for DOS
   EFERMI =   0.00
   ISMEAR =     0;   SIGMA  =   0.05  broadening in eV -4-tet -1-fermi 0-gaus

 Electronic relaxation 2 (details)
   IALGO  =     58    algorithm
   LDIAG  =      T    sub-space diagonalisation (order eigenvalues)
   LSUBROT=      F    optimize rotation matrix (better conditioning)
   TURBO    =      0    0=normal 1=particle mesh
   IRESTART =      0    0=no restart 2=restart with 2 vectors
   NREBOOT  =      0    no. of reboots
   NMIN     =      0    reboot dimension
   EREF     =   0.00    reference energy to select bands
   IMIX   =      4    mixing-type and parameters
     AMIX     =   0.40;   BMIX     =  1.00
     AMIX_MAG =   1.60;   BMIX_MAG =  1.00
     AMIN     =   0.10
     WC   =   100.;   INIMIX=   1;  MIXPRE=   1;  MAXMIX= -45

 Intra band minimization:
   WEIMIN = 0.0010     energy-eigenvalue tresh-hold
   EBREAK =  0.27E-07  absolut break condition
   DEPER  =   0.30     relativ break condition  

   TIME   =   0.40     timestep for ELM

  volume/ion in A,a.u.               =      10.41        70.27
  Fermi-wavevector in a.u.,A,eV,Ry     =   1.546347  2.922172 32.534108  2.391189
  Thomas-Fermi vector in A             =   2.651596
 
 Write flags
   LWAVE        =      T    write WAVECAR
   LDOWNSAMPLE  =      F    k-point downsampling of WAVECAR
   LCHARG       =      F    write CHGCAR
   LVTOT        =      F    write LOCPOT, total local potential
   LVHAR        =      T    write LOCPOT, Hartree potential only
   LELF         =      F    write electronic localiz. function (ELF)
   LORBIT       =     10    0 simple, 1 ext, 2 COOP (PROOUT), +10 PAW based schemes


 Dipole corrections
   LMONO  =      F    monopole corrections only (constant potential shift)
   LDIPOL =      F    correct potential (dipole corrections)
   IDIPOL =      0    1-x, 2-y, 3-z, 4-all directions 
   EPSILON=  1.0000000 bulk dielectric constant

 Exchange correlation treatment:
   GGA     =    --    GGA type
   LEXCH   =     8    internal setting for exchange type
   VOSKOWN=      0    Vosko Wilk Nusair interpolation
   EXXOEP  =     0    0=HF, 1=EXX-LHF (local Hartree Fock) 2=EXX OEP
   LHFCALC =     T    Hartree Fock is set to
   LSYMGRAD=     F    symmetrize gradient (conserves proper symmetry)
   PRECFOCK=fast      Normal, Fast or Accurate (Low or Medium for compatibility)
   LRHFCALC=     F    long range Hartree Fock
   LRSCOR  =     F    long range correlation only (use DFT for short range part)
   LTHOMAS =     F    Thomas Fermi screening in HF
   LMODELHF=     F    short range full HF, long range fraction AEXX
   ENCUT4O =  -1.0   cutoff for four orbital integrals eV
   LMAXFOCK=     4    L truncation for augmentation on plane wave grid
   LMAXFOCKAE=  -1    L truncation for all-electron charge restoration on plane wave grid
   NMAXFOCKAE=   1    number of basis functions for all-electron charge restoration
   LFOCKAEDFT=     F  apply the AE augmentation even for DFT
   NKREDX  =     1    reduce k-point grid by
   NKREDY  =     1    reduce k-point grid by
   NKREDZ  =     1    reduce k-point grid by
   SHIFTRED=     F    shift reduced grid of Gamma
   HFKIDENT=     F    idential grid for each k-point
   ODDONLY =     F    use only odd q-grid points
   EVENONLY=     F    use only even q-grid points
   HFALPHA =   -1.0000 decay constant for conv. correction
   MCALPHA =    0.0000 extent of test-charge in conv. correction in multipole expansion
   AEXX    =    0.3200 exact exchange contribution
   HFSCREEN=    0.2000 screening length (either q_TF or 0.3 A-1)
   HFSCREENC=   0.2000 screening length for correlation (either q_TF or 0.3 A-1)
   HFRCUT  =    0.0000 spherical cutoff for potential kernel
   ALDAX   =    0.6800 LDA exchange part
   AGGAX   =    0.6800 GGA exchange part
   ALDAC   =    1.0000 LDA correlation
   AGGAC   =    1.0000 GGA correlation
   ENCUTFOCK=  -1.0 apply spherical cutoff to Coloumb kernel
   NBANDSGWLOW=     1    first orbital included in HF term
   NBLOCK_FOCK=    64    blocking factor in FOCK_ACC
 Linear response parameters
   LEPSILON=     F    determine dielectric tensor
   LRPA    =     F    only Hartree local field effects (RPA)
   LNABLA  =     F    use nabla operator in PAW spheres
   LVEL    =     F    velocity operator in full k-point grid
   LINTERFAST=   F  fast interpolation
   KINTER  =     0    interpolate to denser k-point grid
   CSHIFT  =0.1000    complex shift for real part using Kramers Kronig
   OMEGAMAX=  -1.0    maximum frequency
   DEG_THRESHOLD= 0.2000000E-02 threshold for treating states as degnerate
   RTIME   =   -0.100 relaxation time in fs
  (WPLASMAI=    0.000 imaginary part of plasma frequency in eV, 0.658/RTIME)
   DFIELD  = 0.0000000 0.0000000 0.0000000 field for delta impulse in time
 
 Orbital magnetization related:
   ORBITALMAG=     F  switch on orbital magnetization
   LCHIMAG   =     F  perturbation theory with respect to B field
   DQ        =  0.001000  dq finite difference perturbation B field
   LLRAUG    =     F  two centre corrections for induced B field



--------------------------------------------------------------------------------------------------------


 conjugate gradient relaxation of ions
 charge density and potential will be updated during run
 spin polarized calculation
 Conjugate gradient for all bands (Freysoldt, et al. PRB 79, 241103 (2009))
 preconditioned conjugated gradient                                        
 perform sub-space diagonalisation
    before iterative eigenvector-optimisation
 modified Broyden-mixing scheme, WC =      100.0
 initial mixing is a Kerker type mixing with AMIX =  0.4000 and BMIX =      1.0000
 Hartree-type preconditioning will be used
 using additional bands          234
 real space projection scheme for non local part
 use partial core corrections
 no Harris-corrections to forces 
 use gradient corrections 
 use of overlap-Matrix (Vanderbilt PP)
 Gauss-broadening in eV      SIGMA  =   0.05


--------------------------------------------------------------------------------------------------------


  energy-cutoff  :      400.00
  volume of cell :     1665.98
      direct lattice vectors                 reciprocal lattice vectors
    11.860900622  0.000000000 -2.912624073     0.084310630  0.000000000  0.000000000
     0.000000000 12.131861322  0.000000000     0.000000000  0.082427583  0.000000000
     0.000000000  0.000000000 11.577785773     0.021210029  0.000000000  0.086372301

  length of vectors
    12.213285494 12.131861322 11.577785773     0.084310630  0.082427583  0.088938404


 
 old parameters found on file WAVECAR:
  energy-cutoff  :      400.00
  volume of cell :     1665.98
      direct lattice vectors                 reciprocal lattice vectors
    11.860900622  0.000000000 -2.912624073     0.084310630  0.000000000  0.000000000
     0.000000000 12.131861322  0.000000000     0.000000000  0.082427583  0.000000000
     0.000000000  0.000000000 11.577785773     0.021210029  0.000000000  0.086372301

  length of vectors

 
 k-points in units of 2pi/SCALE and weight: KPOINTS created by Atomic Simulation Env
   0.02638016  0.02060690  0.02159308       1.000
 
 k-points in reciprocal lattice and weights: KPOINTS created by Atomic Simulation Env
   0.25000000  0.25000000  0.25000000       1.000
 
 position of ions in fractional coordinates (direct lattice) 
   0.09015313  0.99995499  0.39633679
   0.41110015  0.62515044  0.60421074
   0.58923814  0.62502267  0.89604091
   0.15952312  0.62496512  0.65543394
   0.84051448  0.62497171  0.84413112
   0.91008140  0.50004880  0.60372247
   0.08969120  0.50020444  0.89585317
   0.84047869  0.37522219  0.84417208
   0.91141497  0.25007300  0.60404968
   0.08876951  0.25007655  0.89647926
   0.84060078  0.62493468  0.34424168
   0.65989659  0.99965455  0.65675851
   0.15927503  0.62510705  0.15568977
   0.08840742  0.25008603  0.39752416
   0.91113017  0.25008619  0.10390833
   0.84086377  0.37542324  0.34417017
   0.15755626  0.37645450  0.15459092
   0.59182210  0.37678069  0.39726053
   0.41144196  0.37560730  0.10333580
   0.66001004  0.25013332  0.15566315
   0.41085578  0.62513379  0.10381996
   0.34103245  0.50238370  0.34432653
   0.58977103  0.62535448  0.39605662
   0.34067279  0.00003823  0.84373560
   0.41126145  0.12497956  0.60377965
   0.58930270  0.12512647  0.89602668
   0.90970530  0.99949693  0.10345497
   0.84086149  0.12479114  0.34419324
   0.15756353  0.12372879  0.15455885
   0.59179747  0.12344110  0.39724936
   0.41150803  0.12463980  0.10332315
   0.34105521  0.99783022  0.34430377
   0.65986008  0.99997947  0.15609817
   0.09014665  0.50021136  0.39635265
   0.65985401  0.50025301  0.15610196
   0.65986908  0.25009998  0.65502557
   0.90970267  0.50065630  0.10345170
   0.41120419  0.37529585  0.60378583
   0.58937511  0.37520134  0.89604122
   0.15978616  0.37540403  0.65629970
   0.65989421  0.50052453  0.65675800
   0.34067907  0.50019071  0.84375755
   0.08967850  0.99994106  0.89585089
   0.91006030  0.00009528  0.60371852
   0.84046477  0.12497691  0.84420069
   0.15980022  0.12475742  0.65626705
   0.34033803  0.25012916  0.84455274
   0.08847981  0.75008755  0.39575848
   0.91128084  0.75007720  0.10379463
   0.84061600  0.87528562  0.34421681
   0.15924966  0.87506299  0.15569600
   0.58986152  0.87490943  0.39606427
   0.41079074  0.87513904  0.10379722
   0.34013055  0.75011819  0.34438297
   0.65990992  0.75012586  0.15536264
   0.08862834  0.75006802  0.89577501
   0.91141603  0.75007372  0.60396230
   0.84052847  0.87522953  0.84411758
   0.15949846  0.87521922  0.65545197
   0.58930071  0.87530602  0.89605418
   0.41101193  0.87516773  0.60418643
   0.34021193  0.75014407  0.84445533
   0.65990850  0.75010920  0.65517152
   0.33916500  0.25009559  0.33642802
   0.67262288  0.37541722  0.78110829
   0.32792775  0.37559956  0.71950918
   0.50275972  0.25020793  0.87287869
   0.16415659  0.50047936  0.05245361
   0.49746068  0.50043188  0.12769576
   0.99709680  0.62461185  0.12743414
   0.50294639  0.50009282  0.87233343
   0.49759066  0.50039415  0.62854707
   0.33604895  0.62451536  0.94714064
   0.66431352  0.62473035  0.55286749
   0.17250246  0.50015438  0.78056143
   0.82796507  0.50031542  0.71981386
   0.00274785  0.62450425  0.87200124
   0.99716349  0.62439133  0.62759446
   0.83549923  0.50021051  0.94696980
   0.16436931  0.50012024  0.55311235
   0.67270953  0.62505096  0.28057551
   0.32766319  0.62519387  0.21925376
   0.50372880  0.50049129  0.37190282
   0.49735513  0.25017617  0.62809354
   0.33583388  0.62557838  0.44756736
   0.66417065  0.62453209  0.05272005
   0.17170046  0.50076732  0.28002608
   0.82786069  0.50041499  0.21945010
   0.00279068  0.62441403  0.37223911
   0.83537268  0.50018314  0.44709224
   0.33590776  0.37586996  0.94720531
   0.67335379  0.37623043  0.28042585
   0.17252713  0.25011844  0.78143716
   0.17248974  0.00003845  0.78055122
   0.82796050  0.99982643  0.71982203
   0.00294983  0.12446255  0.87252603
   0.99730641  0.12439199  0.62796892
   0.83549384  0.99997376  0.94696378
   0.16436035  0.00002049  0.55310144
   0.67336222  0.12400109  0.28043557
   0.32666198  0.12039807  0.21793652
   0.66573917  0.12350713  0.55409976
   0.50375107  0.99970543  0.37188931
   0.33573788  0.11981732  0.44787106
   0.66375510  0.12461719  0.05287087
   0.17170141  0.99946195  0.28001641
   0.82786407  0.99975040  0.21944614
   0.00289311  0.12424945  0.37290287
   0.99630768  0.12404629  0.12733399
   0.83536595  0.00001303  0.44709346
   0.16413714  0.99965984  0.05243276
   0.49746506  0.99978164  0.12769391
   0.33595346  0.12438006  0.94719927
   0.49759745  0.99983498  0.62855512
   0.50293847  0.00017322  0.87233052
   0.82782636  0.25006923  0.71923477
   0.00295645  0.37568505  0.87252832
   0.99730717  0.37575193  0.62797272
   0.83681832  0.25014526  0.94714268
   0.16399005  0.25009677  0.55359535
   0.32759318  0.62478122  0.71922331
   0.32665903  0.37977335  0.21796326
   0.51065692  0.25012404  0.37705519
   0.49682937  0.25015938  0.12872779
   0.33569317  0.38036448  0.44785935
   0.66380109  0.37562768  0.05287576
   0.16765221  0.25014514  0.27863446
   0.82794926  0.25010212  0.21913865
   0.00289300  0.37592733  0.37287870
   0.99630921  0.37611786  0.12734164
   0.83659634  0.25014122  0.44710251
   0.16395810  0.25010538  0.05336530
   0.67260615  0.12482384  0.78112349
   0.32795379  0.12457618  0.71949796
   0.66577402  0.37666482  0.55409386
   0.67250267  0.62483442  0.78083888
   0.16350060  0.75009384  0.05263173
   0.83662909  0.75014238  0.44704654
   0.99708604  0.87554962  0.12743183
   0.00279704  0.87576208  0.37222634
   0.82777706  0.75008644  0.21891049
   0.17212827  0.75012076  0.28066532
   0.66422680  0.87569849  0.05272181
   0.33578287  0.87467984  0.44755120
   0.49736777  0.75017857  0.12760513
   0.50284272  0.75017551  0.37221163
   0.32764190  0.87498349  0.21925072
   0.67273777  0.87518567  0.28054336
   0.16338948  0.75012525  0.55260857
   0.83635333  0.75013439  0.94704706
   0.99714448  0.87575814  0.62759672
   0.00274722  0.87562560  0.87198733
   0.82764285  0.75006894  0.71897657
   0.17239470  0.75011188  0.78079267
   0.66438267  0.87546515  0.55287124
   0.33597700  0.87575875  0.94713309
   0.49755577  0.75020404  0.62776217
   0.50285531  0.75020522  0.87226089
   0.32756328  0.87541427  0.71924144
   0.67252769  0.87540165  0.78082967
 
 position of ions in cartesian coordinates  (Angst):
   1.06929729 12.13131525  4.32612025
   4.87601807  7.58423848  5.79804228
   6.98889504  7.58268830  8.65794050
   1.89208792  7.58199020  7.12384288
   9.96925871  7.58207006  7.32506660
  10.79438507  6.06652273  4.33904446
   1.06381843  6.06841088 10.11075933
   9.96883422  4.55214355  7.32564506
  10.81020234  3.03385098  4.33894867
   1.05288635  3.03389404 10.12069262
   9.97028235  7.58162092  1.53720231
   7.82696783 12.12767039  5.68177865
   1.88914529  7.58371202  1.33863456
   1.04859160  3.03400908  4.34495204
  10.80682442  3.03401100 -1.45075132
   9.97340156  4.55458269  1.53560845
   1.86875917  4.56709379  1.33091841
   7.01954310  4.57105112  2.87564197
   4.88007226  4.55681564 -0.00197600
   7.82831350  3.03458272 -0.12012650
   4.87311955  7.58403650  0.00533678
   4.04495205  6.09484941  2.99323945
   6.99521553  7.58671384  2.86767741
   4.04068613  0.00046382  8.77633823
   4.87793114  1.51623471  5.79258150
   6.98966071  1.51801702  8.65758778
  10.78992416 12.12575817 -1.45185008
   9.97337451  1.51394886  1.53588215
   1.86884542  1.50106054  1.33052593
   7.01925096  1.49757034  2.87558444
   4.88085581  1.51211281 -0.00231485
   4.04522192 12.10553786  2.99290969
   7.82653480 12.13161225 -0.11465322
   1.06922051  6.06849488  4.32632279
   7.82646281  6.06900020 -0.11459163
   7.82664159  3.03417830  5.66179519
  10.78989293  6.07389279 -1.45188025
   4.87725202  4.55303715  5.79281975
   6.99051965  4.55189062  8.65754510
   1.89520775  4.55434959  7.13310038
   7.82693970  6.07229416  5.68177968
   4.04076061  6.06824438  8.77657405
   1.06366776 12.13114632 10.11076994
  10.79413484  0.00115592  4.33906014
   9.96866912  1.51620257  7.32601676
   1.89537453  1.51353972  7.13268132
   4.03671556  3.03453228  8.78677399
   1.04945018  9.09995817  4.32429844
  10.80861145  9.09983262 -1.45250648
   9.97046287 10.61884378  1.53687012
   1.88884441 10.61614280  1.33878058
   6.99628888 10.61427985  2.86750239
   4.87234815 10.61706543  0.00526293
   4.03425470  9.10032983  2.99651981
   7.82712600  9.10042287 -0.12331411
   1.05121192  9.09972117 10.11295013
  10.81021491  9.09979031  4.33793386
   9.96942460 10.61816333  7.32486901
   1.89179533 10.61803816  7.12412349
   6.98963711 10.61909127  8.65791186
   4.87497160 10.61741351  5.79801780
   4.03521989  9.10064384  8.78601340
   7.82710917  9.10022085  5.66337014
   4.02280240  3.03412506  2.90723134
   7.97791308  4.55450969  7.08440689
   3.88951840  4.55672179  7.37519292
   5.96318313  3.03548796  8.64165245
   1.94704505  6.07174620  0.12917026
   5.90033171  6.07117011  0.02951821
  11.82646601  7.57770429 -1.42876294
   5.96539721  6.06705676  8.63479582
   5.90187333  6.07071242  5.82788878
   3.98584318  7.57653374  9.98700718
   7.87935659  7.57914197  4.46608579
   2.04603456  6.06780361  8.53473819
   9.82041146  6.06975729  5.92229965
   0.03259203  7.57639894 10.08784009
  11.82725701  7.57502907  4.36179181
   9.90977329  6.06848448  8.53031827
   1.94956805  6.06738942  5.92507028
   7.97894093  7.58303152  1.28909320
   3.88638056  7.58476538  1.58411340
   5.97467726  6.07189093  2.83863860
   5.89907974  3.03510258  5.82332395
   3.98329222  7.58943015  4.20368115
   7.87766202  7.57673673 -1.32409792
   2.03652210  6.07523970  2.74198311
   9.81917333  6.07096523  0.12949930
   0.03309993  7.57530445  4.30157649
   9.90827229  6.06815245  2.74321161
   3.98416857  4.56000228  9.98816717
   7.98658236  4.56437537  1.28548401
   2.04632717  3.03440227  8.54480530
   2.04588368  0.00046642  8.53465706
   9.82035726 12.12975557  5.92240755
   0.03498759  1.50996240 10.09332776
  11.82895225  1.50910635  4.36571100
   9.90970944 12.13154296  8.53026429
   1.94946181  0.00024862  5.92497001
   7.98668242  1.50436404  1.28557187
   3.87450532  1.46065270  1.57177884
   7.89626612  1.49837142  4.47620039
   5.97494133 12.12828763  2.83841728
   3.98215367  1.45360707  4.20747699
   7.87273329  1.51183852 -1.32114148
   2.03653334 12.12533378  2.74186834
   9.81921346 12.12883320  0.12944360
   0.03431491  1.50737715  4.30896302
  11.81710638  1.50491240 -1.42762412
   9.90819252  0.00015809  2.74324527
   1.94681429 12.12773461  0.12898546
   5.90038367 12.12921217  0.02948401
   3.98471061  1.50896165  9.98796414
   5.90195386 12.12985934  5.82796224
   5.96530316  0.00210144  8.63478518
   9.81876616  3.03380528  5.91599914
   0.03506615  4.55775897 10.09333489
  11.82896121  4.55857037  4.36575281
   9.92541893  3.03472760  8.52847783
   1.94506974  3.03413938  5.93176703
   3.88555010  7.57975908  7.37285759
   3.87447028  4.60735767  1.57209698
   6.05685094  3.03447021  2.87811257
   5.89284379  3.03489885  0.04330561
   3.98162329  4.61452909  4.20747156
   7.87327873  4.55706289 -1.32121884
   1.98850617  3.03472610  2.73766222
   9.82022386  3.03420422  0.12563545
   0.03431357  4.56069827  4.30868349
  11.81712447  4.56300975 -1.42753999
   9.92278603  3.03467858  2.73976641
   1.94469078  3.03424379  0.14030368
   7.97771475  1.51434554  7.08463151
   3.88982730  1.51134096  7.37498712
   7.89667953  4.56964538  4.47603060
   7.97648737  7.58040453  7.08163778
   1.93926431  9.10003443  0.13314310
   9.92317451  9.10062330  2.73902308
  11.82633844 10.62204659 -1.42875834
   0.03317537 10.62462410  4.30141014
   9.81818149  9.09994466  0.12349540
   2.04159635  9.10036108  2.74813802
   7.87832807 10.62385262 -1.32424110
   3.98268721 10.61149456  4.20364271
   5.89922967  9.10106232  0.02873956
   5.96416757  9.10102529  2.84479465
   3.88612798 10.61517840  1.58414020
   7.97927589 10.61763124  1.28863872
   1.93794634  9.10041549  5.92209147
   9.91990374  9.10052639  8.52872517
  11.82703164 10.62457633  4.36187332
   0.03258451 10.62296835 10.08768093
   9.81658961  9.09973234  5.91354415
   2.04475641  9.10025327  8.53772927
   7.88017680 10.62102181  4.46592785
   3.98498978 10.62458375  9.98712927
   5.90145958  9.10137132  5.81890305
   5.96431685  9.10138569  8.63422122
   3.88519551 10.62040448  7.37315467
   7.97678407 10.62025144  7.08145831
 


--------------------------------------------------------------------------------------------------------


 k-point  1 :   0.2500 0.2500 0.2500  plane waves:   30269

 maximum and minimum number of plane-waves per node :      3813     3744

 maximum number of plane-waves:     30269
 maximum index in each direction: 
   IXMAX=   19   IYMAX=   19   IZMAX=   18
   IXMIN=  -20   IYMIN=  -20   IZMIN=  -19


 real space projection operators:
  total allocation   :      19678.39 KBytes
  max/ min on nodes  :       2582.50       2320.89


 parallel 3D FFT for wavefunctions:
    minimum data exchange during FFTs selected (reduces bandwidth)
 parallel 3D FFT for charge:
    minimum data exchange during FFTs selected (reduces bandwidth)


 FFT grid for exact exchange (Hartree Fock) 
  NGX = 42; NGY = 42; NGZ = 40

 
 Radii for the augmentation spheres in the non-local exchange
 for species   1 augmentation radius   1.277 (default was   1.031)
       energy cutoff for augmentation   1600.0
 for species   2 augmentation radius   1.454 (default was   1.279)
       energy cutoff for augmentation   1600.0
 for species   3 augmentation radius   0.820 (default was   0.722)
       energy cutoff for augmentation   1600.0

 real space projection operators:
  total allocation   :       5325.69 KBytes
  max/ min on nodes  :        710.54        593.47

 Maximum index for augmentation-charges in exchange           75
  SETUP_FOCK is finished

 total amount of memory used by VASP MPI-rank0    59410. kBytes
=======================================================================

   base      :      30000. kBytes
   nonlr-proj:      12823. kBytes
   fftplans  :       1991. kBytes
   grid      :       3603. kBytes
   one-center:        622. kBytes
   HF        :        129. kBytes
   wavefun   :      10242. kBytes
 
     INWAV:  cpu time    5.1015: real time    5.1024
 Broyden mixing: mesh for mixing (old mesh)
   NGX = 39   NGY = 39   NGZ = 37
  (NGX  =120   NGY  =120   NGZ  =120)
  gives a total of  56277 points

 charge density for first step will be calculated from the start-wavefunctions


--------------------------------------------------------------------------------------------------------


 Maximum index for non-local projection operator          352
 Maximum index for augmentation-charges          168 (set IRDMAX)


--------------------------------------------------------------------------------------------------------


 initial charge from wavefunction
 First call to EWALD:  gamma=   0.150
 Maximum number of real-space cells 3x 3x 3
 Maximum number of reciprocal cells 3x 3x 3

    FEWALD:  cpu time    0.0061: real time    0.0061


--------------------------------------- Iteration      1(   1)  ---------------------------------------


    POTLOK:  cpu time    0.0905: real time    0.0916
    SETDIJ:  cpu time    0.2150: real time    0.2151
    TRIAL :  cpu time  121.1414: real time  121.2451
    CORREC:  cpu time  119.4899: real time  119.5173
    CHARGE:  cpu time    0.1263: real time    0.1263
    --------------------------------------------
      LOOP:  cpu time  241.0850: real time  241.2272

 eigenvalue-minimisations  :     0
 total energy-change (2. order) :-0.1514777E+04  (-0.1603212E-05)
 number of electron    1404.0004304 magnetization      -0.0000000
 augmentation part      608.9229248 magnetization       0.0000009

 Free energy of the ion-electron system (eV)
  ---------------------------------------------------
  alpha Z        PSCENC =      9536.06362079
  Ewald energy   TEWEN  =   -118147.57588773
  -Hartree energ DENC   =    -44587.24636027
  -exchange      EXHF   =      5263.44112410
  -V(xc)+E(xc)   XCENC  =      4711.61041900
  PAW double counting   =    127032.02670990  -148559.36525745
  entropy T*S    EENTRO =        -0.00000000
  eigenvalues    EBANDS =    -13498.44010111
  atomic energy  EATOM  =    176734.70858493
  ---------------------------------------------------
  free energy    TOTEN  =     -1514.77714784 eV

  energy without entropy =    -1514.77714784  energy(sigma->0) =    -1514.77714784
  exchange ACFDT corr.  =        -0.00000000  see jH, gK, PRB 81, 115126


--------------------------------------------------------------------------------------------------------




--------------------------------------- Iteration      1(   2)  ---------------------------------------


    POTLOK:  cpu time    0.0887: real time    0.0897
    SETDIJ:  cpu time    0.2148: real time    0.2149
    TRIAL :  cpu time  120.0540: real time  120.0799
    CORREC:  cpu time  123.7825: real time  123.8196
    EDDIAG:  cpu time  117.6210: real time  117.6454
    CHARGE:  cpu time    0.1260: real time    0.1260
    --------------------------------------------
      LOOP:  cpu time  361.8924: real time  361.9970

 eigenvalue-minimisations  :     0
 total energy-change (2. order) :-0.1579174E-05  (-0.1111321E-05)
 number of electron    1404.0004304 magnetization      -0.0000000
 augmentation part      608.9230225 magnetization       0.0000007

 Free energy of the ion-electron system (eV)
  ---------------------------------------------------
  alpha Z        PSCENC =      9536.06362079
  Ewald energy   TEWEN  =   -118147.57588773
  -Hartree energ DENC   =    -44587.23026447
  -exchange      EXHF   =      5263.44101852
  -V(xc)+E(xc)   XCENC  =      4711.60989759
  PAW double counting   =    127032.01149844  -148559.32820795
  entropy T*S    EENTRO =        -0.00000000
  eigenvalues    EBANDS =    -13498.47705505
  atomic energy  EATOM  =    176734.70858493
  ---------------------------------------------------
  free energy    TOTEN  =     -1514.77714942 eV

  energy without entropy =    -1514.77714942  energy(sigma->0) =    -1514.77714942
  exchange ACFDT corr.  =        -0.00000000  see jH, gK, PRB 81, 115126


--------------------------------------------------------------------------------------------------------


  average scaling for gradient   0.9438


 average (electrostatic) potential at core
  the test charge radii are     1.0314  1.2793  0.7215
  (the norm of the test charge is              1.0000)
       1 -20.0890       2 -20.1198       3 -20.1196       4 -20.0681       5 -20.0612
       6 -20.1020       7 -20.1082       8 -20.0683       9 -20.1403      10 -20.1499
      11 -20.0606      12 -20.0223      13 -20.0747      14 -20.1460      15 -20.1500
      16 -20.0696      17 -20.0922      18 -20.0356      19 -20.1795      20 -20.1353
      21 -20.1380      22 -19.9796      23 -20.1049      24 -20.0497      25 -20.0908
      26 -20.1194      27 -20.0986      28 -20.0716      29 -20.0943      30 -20.0364
      31 -20.1812      32 -19.9792      33 -20.0447      34 -20.0890      35 -20.0443
      36 -20.1080      37 -20.0982      38 -20.0894      39 -20.1175      40 -20.0745
      41 -20.0227      42 -20.0499      43 -20.1081      44 -20.1017      45 -20.0698
      46 -20.0760      47 -20.1063      48 -20.1336      49 -20.1253      50 -20.0595
      51 -20.0739      52 -20.1038      53 -20.1367      54 -20.0938      55 -20.0883
      56 -20.1398      57 -20.1316      58 -20.0595      59 -20.0663      60 -20.1180
      61 -20.1183      62 -20.1020      63 -20.0813      64 -47.6952      65 -63.6274
      66 -63.6300      67 -63.5034      68 -63.1834      69 -63.4904      70 -63.4837
      71 -63.4698      72 -63.4481      73 -63.1742      74 -63.1564      75 -63.6380
      76 -63.6246      77 -63.4853      78 -63.4745      79 -63.1533      80 -63.1469
      81 -63.6372      82 -63.6761      83 -63.4448      84 -63.5097      85 -63.1876
      86 -63.1673      87 -63.5925      88 -63.6300      89 -63.4719      90 -63.1557
      91 -63.1882      92 -63.6419      93 -63.6586      94 -63.6379      95 -63.6243
      96 -63.4909      97 -63.4786      98 -63.1536      99 -63.1467     100 -63.6427
     101 -64.0108     102 -63.1480     103 -63.4455     104 -63.2566     105 -63.1806
     106 -63.5919     107 -63.6305     108 -63.4860     109 -63.5143     110 -63.1562
     111 -63.1836     112 -63.4914     113 -63.1896     114 -63.4481     115 -63.4702
     116 -63.6476     117 -63.4902     118 -63.4787     119 -63.1824     120 -63.2061
     121 -63.6433     122 -64.0097     123 -63.4937     124 -63.5799     125 -63.2567
     126 -63.1795     127 -63.9407     128 -63.6629     129 -63.4848     130 -63.5132
     131 -63.1836     132 -63.2096     133 -63.6276     134 -63.6304     135 -63.1472
     136 -63.6418     137 -63.1840     138 -63.1723     139 -63.4838     140 -63.4714
     141 -63.6330     142 -63.6574     143 -63.1664     144 -63.1861     145 -63.4985
     146 -63.4793     147 -63.6757     148 -63.6376     149 -63.1767     150 -63.1731
     151 -63.4734     152 -63.4847     153 -63.6461     154 -63.6539     155 -63.1556
     156 -63.1737     157 -63.4875     158 -63.4932     159 -63.6440     160 -63.6413
 
 
 
 E-fermi :   3.0098     XC(G=0):  -8.8926     alpha+bet :-11.2968


 spin component 1

 k-point     1 :       0.2500    0.2500    0.2500
  band No.  band energies     occupation 
      1     -19.9758      1.00000
      2     -19.8352      1.00000
      3     -19.8176      1.00000
      4     -19.7539      1.00000
      5     -19.6275      1.00000
      6     -19.6188      1.00000
      7     -19.6071      1.00000
      8     -19.4268      1.00000
      9     -19.3876      1.00000
     10     -19.3393      1.00000
     11     -19.3063      1.00000
     12     -19.2859      1.00000
     13     -19.2667      1.00000
     14     -19.1955      1.00000
     15     -19.1642      1.00000
     16     -19.1529      1.00000
     17     -19.1205      1.00000
     18     -19.0661      1.00000
     19     -19.0406      1.00000
     20     -19.0248      1.00000
     21     -19.0099      1.00000
     22     -18.9833      1.00000
     23     -18.9677      1.00000
     24     -18.9627      1.00000
     25     -18.9529      1.00000
     26     -18.9444      1.00000
     27     -18.9068      1.00000
     28     -18.8978      1.00000
     29     -18.8780      1.00000
     30     -18.8684      1.00000
     31     -18.8619      1.00000
     32     -18.8532      1.00000
     33     -18.8315      1.00000
     34     -18.8153      1.00000
     35     -18.8028      1.00000
     36     -18.7930      1.00000
     37     -18.7849      1.00000
     38     -18.7797      1.00000
     39     -18.7551      1.00000
     40     -18.7470      1.00000
     41     -18.7290      1.00000
     42     -18.7004      1.00000
     43     -18.6890      1.00000
     44     -18.6786      1.00000
     45     -18.6649      1.00000
     46     -18.6457      1.00000
     47     -18.6294      1.00000
     48     -18.6225      1.00000
     49     -18.6166      1.00000
     50     -18.6067      1.00000
     51     -18.5970      1.00000
     52     -18.5849      1.00000
     53     -18.5729      1.00000
     54     -18.5590      1.00000
     55     -18.5521      1.00000
     56     -18.5486      1.00000
     57     -18.5374      1.00000
     58     -18.5293      1.00000
     59     -18.5159      1.00000
     60     -18.5086      1.00000
     61     -18.5044      1.00000
     62     -18.4997      1.00000
     63     -18.4919      1.00000
     64     -18.4872      1.00000
     65     -18.4341      1.00000
     66     -18.4107      1.00000
     67     -18.3916      1.00000
     68     -18.3862      1.00000
     69     -18.3745      1.00000
     70     -18.3696      1.00000
     71     -18.3427      1.00000
     72     -18.3312      1.00000
     73     -18.3222      1.00000
     74     -18.3145      1.00000
     75     -18.3071      1.00000
     76     -18.2983      1.00000
     77     -18.2960      1.00000
     78     -18.2914      1.00000
     79     -18.2845      1.00000
     80     -18.2814      1.00000
     81     -18.2784      1.00000
     82     -18.2756      1.00000
     83     -18.2669      1.00000
     84     -18.2602      1.00000
     85     -18.2576      1.00000
     86     -18.2469      1.00000
     87     -18.2387      1.00000
     88     -18.2281      1.00000
     89     -18.2212      1.00000
     90     -18.2119      1.00000
     91     -18.1960      1.00000
     92     -18.1929      1.00000
     93     -18.1869      1.00000
     94     -18.1659      1.00000
     95     -18.1572      1.00000
     96     -18.1285      1.00000
     97     -14.2694      1.00000
     98     -14.2528      1.00000
     99     -14.2431      1.00000
    100     -14.2360      1.00000
    101     -14.2274      1.00000
    102     -14.2182      1.00000
    103     -14.2121      1.00000
    104     -14.2061      1.00000
    105     -14.2025      1.00000
    106     -14.2008      1.00000
    107     -14.1967      1.00000
    108     -14.1956      1.00000
    109     -14.1925      1.00000
    110     -14.1903      1.00000
    111     -14.1876      1.00000
    112     -14.1861      1.00000
    113     -14.1801      1.00000
    114     -14.1772      1.00000
    115     -14.1741      1.00000
    116     -14.1712      1.00000
    117     -14.1635      1.00000
    118     -14.1612      1.00000
    119     -14.1568      1.00000
    120     -14.1557      1.00000
    121     -14.1536      1.00000
    122     -14.1502      1.00000
    123     -14.1447      1.00000
    124     -14.1428      1.00000
    125     -14.1412      1.00000
    126     -14.1394      1.00000
    127     -14.1376      1.00000
    128     -14.1362      1.00000
    129     -14.1345      1.00000
    130     -14.1314      1.00000
    131     -14.1307      1.00000
    132     -14.1284      1.00000
    133     -14.1272      1.00000
    134     -14.1253      1.00000
    135     -14.1225      1.00000
    136     -14.1220      1.00000
    137     -14.1194      1.00000
    138     -14.1188      1.00000
    139     -14.1159      1.00000
    140     -14.1151      1.00000
    141     -14.1131      1.00000
    142     -14.1105      1.00000
    143     -14.1087      1.00000
    144     -14.1077      1.00000
    145     -14.1072      1.00000
    146     -14.1061      1.00000
    147     -14.1042      1.00000
    148     -14.1027      1.00000
    149     -14.1013      1.00000
    150     -14.0999      1.00000
    151     -14.0982      1.00000
    152     -14.0972      1.00000
    153     -14.0963      1.00000
    154     -14.0948      1.00000
    155     -14.0930      1.00000
    156     -14.0906      1.00000
    157     -14.0893      1.00000
    158     -14.0878      1.00000
    159     -14.0861      1.00000
    160     -14.0854      1.00000
    161     -14.0832      1.00000
    162     -14.0826      1.00000
    163     -14.0805      1.00000
    164     -14.0777      1.00000
    165     -14.0731      1.00000
    166     -14.0708      1.00000
    167     -14.0691      1.00000
    168     -14.0647      1.00000
    169     -14.0635      1.00000
    170     -14.0601      1.00000
    171     -14.0575      1.00000
    172     -14.0556      1.00000
    173     -14.0539      1.00000
    174     -14.0478      1.00000
    175     -14.0465      1.00000
    176     -14.0436      1.00000
    177     -14.0387      1.00000
    178     -14.0329      1.00000
    179     -14.0320      1.00000
    180     -14.0281      1.00000
    181     -14.0251      1.00000
    182     -14.0220      1.00000
    183     -14.0180      1.00000
    184     -14.0099      1.00000
    185     -14.0066      1.00000
    186     -14.0028      1.00000
    187     -14.0011      1.00000
    188     -13.9969      1.00000
    189     -13.9928      1.00000
    190     -13.9895      1.00000
    191     -13.9879      1.00000
    192     -13.9842      1.00000
    193     -13.9838      1.00000
    194     -13.9807      1.00000
    195     -13.9792      1.00000
    196     -13.9768      1.00000
    197     -13.9755      1.00000
    198     -13.9753      1.00000
    199     -13.9738      1.00000
    200     -13.9721      1.00000
    201     -13.9683      1.00000
    202     -13.9673      1.00000
    203     -13.9668      1.00000
    204     -13.9659      1.00000
    205     -13.9620      1.00000
    206     -13.9606      1.00000
    207     -13.9579      1.00000
    208     -13.9567      1.00000
    209     -13.9541      1.00000
    210     -13.9526      1.00000
    211     -13.9512      1.00000
    212     -13.9498      1.00000
    213     -13.9490      1.00000
    214     -13.9476      1.00000
    215     -13.9463      1.00000
    216     -13.9440      1.00000
    217     -13.9419      1.00000
    218     -13.9396      1.00000
    219     -13.9373      1.00000
    220     -13.9361      1.00000
    221     -13.9342      1.00000
    222     -13.9322      1.00000
    223     -13.9301      1.00000
    224     -13.9289      1.00000
    225     -13.9272      1.00000
    226     -13.9255      1.00000
    227     -13.9232      1.00000
    228     -13.9214      1.00000
    229     -13.9206      1.00000
    230     -13.9187      1.00000
    231     -13.9180      1.00000
    232     -13.9165      1.00000
    233     -13.9143      1.00000
    234     -13.9132      1.00000
    235     -13.9110      1.00000
    236     -13.9089      1.00000
    237     -13.9075      1.00000
    238     -13.9065      1.00000
    239     -13.9033      1.00000
    240     -13.9027      1.00000
    241     -13.9006      1.00000
    242     -13.8977      1.00000
    243     -13.8944      1.00000
    244     -13.8934      1.00000
    245     -13.8910      1.00000
    246     -13.8887      1.00000
    247     -13.8875      1.00000
    248     -13.8862      1.00000
    249     -13.8849      1.00000
    250     -13.8819      1.00000
    251     -13.8806      1.00000
    252     -13.8787      1.00000
    253     -13.8759      1.00000
    254     -13.8738      1.00000
    255     -13.8730      1.00000
    256     -13.8698      1.00000
    257     -13.8659      1.00000
    258     -13.8649      1.00000
    259     -13.8622      1.00000
    260     -13.8606      1.00000
    261     -13.8581      1.00000
    262     -13.8557      1.00000
    263     -13.8548      1.00000
    264     -13.8485      1.00000
    265     -13.8461      1.00000
    266     -13.8434      1.00000
    267     -13.8403      1.00000
    268     -13.8382      1.00000
    269     -13.8376      1.00000
    270     -13.8331      1.00000
    271     -13.8312      1.00000
    272     -13.8289      1.00000
    273     -13.8276      1.00000
    274     -13.8263      1.00000
    275     -13.8233      1.00000
    276     -13.8222      1.00000
    277     -13.8198      1.00000
    278     -13.8194      1.00000
    279     -13.8174      1.00000
    280     -13.8158      1.00000
    281     -13.8148      1.00000
    282     -13.8136      1.00000
    283     -13.8098      1.00000
    284     -13.8080      1.00000
    285     -13.8060      1.00000
    286     -13.8048      1.00000
    287     -13.8030      1.00000
    288     -13.8014      1.00000
    289     -13.7993      1.00000
    290     -13.7979      1.00000
    291     -13.7965      1.00000
    292     -13.7946      1.00000
    293     -13.7938      1.00000
    294     -13.7930      1.00000
    295     -13.7906      1.00000
    296     -13.7881      1.00000
    297     -13.7852      1.00000
    298     -13.7816      1.00000
    299     -13.7793      1.00000
    300     -13.7786      1.00000
    301     -13.7749      1.00000
    302     -13.7732      1.00000
    303     -13.7720      1.00000
    304     -13.7701      1.00000
    305     -13.7678      1.00000
    306     -13.7656      1.00000
    307     -13.7637      1.00000
    308     -13.7633      1.00000
    309     -13.7623      1.00000
    310     -13.7606      1.00000
    311     -13.7595      1.00000
    312     -13.7580      1.00000
    313     -13.7548      1.00000
    314     -13.7536      1.00000
    315     -13.7522      1.00000
    316     -13.7504      1.00000
    317     -13.7486      1.00000
    318     -13.7466      1.00000
    319     -13.7455      1.00000
    320     -13.7434      1.00000
    321     -13.7423      1.00000
    322     -13.7407      1.00000
    323     -13.7384      1.00000
    324     -13.7353      1.00000
    325     -13.7331      1.00000
    326     -13.7323      1.00000
    327     -13.7307      1.00000
    328     -13.7287      1.00000
    329     -13.7275      1.00000
    330     -13.7249      1.00000
    331     -13.7223      1.00000
    332     -13.7195      1.00000
    333     -13.7158      1.00000
    334     -13.7150      1.00000
    335     -13.7126      1.00000
    336     -13.7085      1.00000
    337     -13.7069      1.00000
    338     -13.7048      1.00000
    339     -13.7016      1.00000
    340     -13.6959      1.00000
    341     -13.6948      1.00000
    342     -13.6912      1.00000
    343     -13.6877      1.00000
    344     -13.6833      1.00000
    345     -13.6784      1.00000
    346     -13.6707      1.00000
    347     -13.6661      1.00000
    348     -13.6545      1.00000
    349     -13.6482      1.00000
    350     -13.6454      1.00000
    351     -13.6374      1.00000
    352     -13.6271      1.00000
    353     -13.6219      1.00000
    354     -13.6088      1.00000
    355     -13.6001      1.00000
    356     -13.5881      1.00000
    357     -13.5778      1.00000
    358     -13.5647      1.00000
    359     -13.5560      1.00000
    360     -13.5267      1.00000
    361     -13.5210      1.00000
    362     -13.4966      1.00000
    363     -13.4746      1.00000
    364     -13.4731      1.00000
    365     -13.4499      1.00000
    366     -13.4243      1.00000
    367     -13.4100      1.00000
    368     -13.3966      1.00000
    369     -13.3873      1.00000
    370     -13.3728      1.00000
    371     -13.3595      1.00000
    372     -13.3504      1.00000
    373     -13.3390      1.00000
    374     -13.3332      1.00000
    375     -13.3265      1.00000
    376     -13.3032      1.00000
    377     -13.2944      1.00000
    378     -13.2825      1.00000
    379     -13.2769      1.00000
    380     -13.2648      1.00000
    381     -13.2385      1.00000
    382     -13.2302      1.00000
    383     -13.2154      1.00000
    384     -13.2013      1.00000
    385     -13.1940      1.00000
    386     -13.1777      1.00000
    387     -13.1623      1.00000
    388     -13.1364      1.00000
    389     -13.1167      1.00000
    390     -13.0884      1.00000
    391     -13.0743      1.00000
    392     -13.0648      1.00000
    393     -13.0536      1.00000
    394     -13.0402      1.00000
    395     -13.0242      1.00000
    396     -13.0199      1.00000
    397     -13.0038      1.00000
    398     -12.9981      1.00000
    399     -12.9798      1.00000
    400     -12.9634      1.00000
    401     -12.9474      1.00000
    402     -12.9416      1.00000
    403     -12.9342      1.00000
    404     -12.9127      1.00000
    405     -12.8980      1.00000
    406     -12.8864      1.00000
    407     -12.8736      1.00000
    408     -12.8560      1.00000
    409     -12.8490      1.00000
    410     -12.8239      1.00000
    411     -12.8103      1.00000
    412      -6.5008      1.00000
    413      -6.3261      1.00000
    414      -6.3037      1.00000
    415      -6.2727      1.00000
    416      -6.1950      1.00000
    417      -6.1247      1.00000
    418      -6.0803      1.00000
    419      -5.9659      1.00000
    420      -5.9346      1.00000
    421      -5.8665      1.00000
    422      -5.8466      1.00000
    423      -5.8126      1.00000
    424      -5.7555      1.00000
    425      -5.7421      1.00000
    426      -5.7331      1.00000
    427      -5.6877      1.00000
    428      -5.6759      1.00000
    429      -5.6504      1.00000
    430      -5.6355      1.00000
    431      -5.6185      1.00000
    432      -5.6005      1.00000
    433      -5.5754      1.00000
    434      -5.5618      1.00000
    435      -5.5340      1.00000
    436      -5.5072      1.00000
    437      -5.4612      1.00000
    438      -5.4193      1.00000
    439      -5.3738      1.00000
    440      -5.3630      1.00000
    441      -5.3243      1.00000
    442      -5.3044      1.00000
    443      -5.2872      1.00000
    444      -5.2243      1.00000
    445      -5.1742      1.00000
    446      -5.1329      1.00000
    447      -5.0995      1.00000
    448      -5.0393      1.00000
    449      -5.0012      1.00000
    450      -4.9288      1.00000
    451      -4.8800      1.00000
    452      -4.8565      1.00000
    453      -4.8350      1.00000
    454      -4.7956      1.00000
    455      -4.7687      1.00000
    456      -4.6712      1.00000
    457      -4.5776      1.00000
    458      -4.5270      1.00000
    459      -4.4622      1.00000
    460      -4.4273      1.00000
    461      -4.4014      1.00000
    462      -4.3795      1.00000
    463      -4.3702      1.00000
    464      -4.3493      1.00000
    465      -4.3260      1.00000
    466      -4.3144      1.00000
    467      -4.2896      1.00000
    468      -4.2515      1.00000
    469      -4.1811      1.00000
    470      -4.1432      1.00000
    471      -4.0743      1.00000
    472      -4.0266      1.00000
    473      -3.9700      1.00000
    474      -3.9339      1.00000
    475      -3.8840      1.00000
    476      -3.8478      1.00000
    477      -3.8373      1.00000
    478      -3.7978      1.00000
    479      -3.7751      1.00000
    480      -3.7150      1.00000
    481      -3.6816      1.00000
    482      -3.6371      1.00000
    483      -3.6189      1.00000
    484      -3.5985      1.00000
    485      -3.5701      1.00000
    486      -3.5032      1.00000
    487      -3.4664      1.00000
    488      -3.4404      1.00000
    489      -3.4267      1.00000
    490      -3.3830      1.00000
    491      -3.3394      1.00000
    492      -3.3182      1.00000
    493      -3.3063      1.00000
    494      -3.2816      1.00000
    495      -3.2642      1.00000
    496      -3.2401      1.00000
    497      -3.2295      1.00000
    498      -3.2101      1.00000
    499      -3.1806      1.00000
    500      -3.1616      1.00000
    501      -3.1448      1.00000
    502      -3.0940      1.00000
    503      -3.0647      1.00000
    504      -3.0268      1.00000
    505      -2.9673      1.00000
    506      -2.9365      1.00000
    507      -2.9086      1.00000
    508      -2.8869      1.00000
    509      -2.8606      1.00000
    510      -2.8411      1.00000
    511      -2.8117      1.00000
    512      -2.7875      1.00000
    513      -2.7578      1.00000
    514      -2.7364      1.00000
    515      -2.7196      1.00000
    516      -2.6811      1.00000
    517      -2.6473      1.00000
    518      -2.6216      1.00000
    519      -2.6041      1.00000
    520      -2.6018      1.00000
    521      -2.5548      1.00000
    522      -2.5105      1.00000
    523      -2.5029      1.00000
    524      -2.4775      1.00000
    525      -2.4495      1.00000
    526      -2.4369      1.00000
    527      -2.4052      1.00000
    528      -2.4028      1.00000
    529      -2.3588      1.00000
    530      -2.3401      1.00000
    531      -2.3010      1.00000
    532      -2.2882      1.00000
    533      -2.2679      1.00000
    534      -2.2434      1.00000
    535      -2.2256      1.00000
    536      -2.2103      1.00000
    537      -2.1936      1.00000
    538      -2.1742      1.00000
    539      -2.1437      1.00000
    540      -2.1148      1.00000
    541      -2.0956      1.00000
    542      -2.0769      1.00000
    543      -2.0716      1.00000
    544      -2.0579      1.00000
    545      -2.0526      1.00000
    546      -2.0348      1.00000
    547      -2.0180      1.00000
    548      -2.0078      1.00000
[...]
      1.94528      3.03416      5.93166        -0.001237      0.001033     -0.009281
      3.88573      7.57984      7.37302         0.005558      0.000028      0.001356
      3.87438      4.60713      1.57159        -0.013580     -0.002152     -0.007137
      6.05777      3.03443      2.87884        -0.014996      0.000110      0.026890
      5.89353      3.03494      0.04404        -0.003946      0.001192      0.016654
      3.98165      4.61427      4.20756        -0.008222      0.012147      0.007900
      7.87363      4.55670     -1.32084         0.005894      0.002158     -0.001042
      1.98914      3.03472      2.73580        -0.045516     -0.000526     -0.010002
      9.81967      3.03418      0.12573        -0.003413      0.000067      0.004453
      0.03440      4.56071      4.30829        -0.002895      0.001010     -0.012636
     11.81719      4.56260     -1.42768        -0.005811     -0.005786     -0.003682
      9.92269      3.03469      2.73996        -0.000147      0.000527     -0.000160
      1.94425      3.03422      0.13981        -0.010113      0.000426     -0.015054
      7.97767      1.51441      7.08425        -0.005488     -0.004201     -0.004280
      3.88978      1.51185      7.37448        -0.004726      0.006850     -0.007607
      7.89671      4.56954      4.47628         0.010216      0.004083      0.010498
      7.97659      7.58015      7.08141        -0.003301      0.002561      0.000275
      1.93951      9.10008      0.13367         0.006205      0.001578      0.011767
      9.92304      9.10066      2.73955        -0.012747      0.000122     -0.003060
     11.82629     10.62228     -1.42876        -0.014807      0.001583     -0.000089
      0.03349     10.62477      4.30148        -0.000549     -0.000361      0.003130
      9.81840      9.09997      0.12366        -0.002033      0.000206      0.008931
      2.04176      9.10036      2.74818         0.007597     -0.000736      0.010788
      7.87849     10.62428     -1.32408         0.005893     -0.003785      0.002166
      3.98301     10.61203      4.20334         0.010240     -0.001484      0.000787
      5.89858      9.10108      0.02866         0.014020     -0.000998     -0.001884
      5.96494      9.10104      2.84478         0.007083     -0.001592     -0.001770
      3.88611     10.61564      1.58415         0.006318      0.001640      0.001031
      7.97904     10.61804      1.28895        -0.000445     -0.001807      0.001522
      1.93801      9.10039      5.92266         0.001830     -0.001528      0.012769
      9.92005      9.10054      8.52823         0.000885      0.000696     -0.000667
     11.82715     10.62462      4.36211         0.000817     -0.000776      0.005532
      0.03299     10.62293     10.08785         0.000510     -0.005155      0.005300
      9.81711      9.09974      5.91367         0.005509      0.000578      0.002581
      2.04455      9.10025      8.53781         0.000601      0.000105      0.004194
      7.88030     10.62187      4.46594         0.006247      0.002453      0.004075
      3.98487     10.62468      9.98717        -0.000196     -0.000056      0.003702
      5.90093      9.10132      5.81916        -0.004400     -0.001554      0.007553
      5.96388      9.10140      8.63441         0.004094      0.000029      0.006745
      3.88543     10.62031      7.37325         0.005652     -0.000983      0.001709
      7.97687     10.62049      7.08122        -0.002918     -0.001663     -0.000966
 -----------------------------------------------------------------------------------
    total drift:                               -0.081944     -0.002891     -0.122477


--------------------------------------------------------------------------------------------------------



  FREE ENERGIE OF THE ION-ELECTRON SYSTEM (eV)
  ---------------------------------------------------
  free  energy   TOTEN  =     -1514.77804479 eV

  energy  without entropy=    -1514.77804479  energy(sigma->0) =    -1514.77804479
 
 d Force =-0.5264261E-06[-0.173E-05, 0.679E-06]  d Energy = 0.1010207E-04-0.106E-04
 d Force = 0.2169431E-01[ 0.217E-01, 0.217E-01]  d Ewald  = 0.2169366E-01 0.647E-06


--------------------------------------------------------------------------------------------------------


    POTLOK:  cpu time    0.2971: real time    0.2971


--------------------------------------------------------------------------------------------------------




--------------------------------------------------------------------------------------------------------


  
 reached required accuracy - stopping structural energy minimisation
 writing wavefunctions
     LOOP+:  cpu time  762.9088: real time  763.1337
    4ORBIT:  cpu time    0.0000: real time    0.0000
 


 total charge     
 
# of ion       s       p       d       tot
------------------------------------------
    1        0.755   1.015  10.309  12.079
    2        0.754   1.010  10.305  12.070
    3        0.754   1.010  10.305  12.069
    4        0.656   0.827  10.271  11.753
    5        0.656   0.828  10.272  11.756
    6        0.755   1.014  10.308  12.077
    7        0.756   1.017  10.310  12.083
    8        0.655   0.827  10.271  11.753
    9        0.753   1.005  10.302  12.060
   10        0.754   1.005  10.302  12.061
   11        0.656   0.827  10.271  11.754
   12        0.657   0.834  10.276  11.768
   13        0.655   0.828  10.272  11.755
   14        0.755   1.006  10.303  12.065
   15        0.754   1.008  10.304  12.066
   16        0.656   0.828  10.272  11.756
   17        0.661   0.826  10.272  11.759
   18        0.758   1.020  10.313  12.092
   19        0.756   1.011  10.306  12.072
   20        0.653   0.817  10.264  11.735
   21        0.754   1.010  10.305  12.069
   22        0.665   0.837  10.281  11.783
   23        0.756   1.013  10.307  12.076
   24        0.656   0.831  10.274  11.761
   25        0.755   1.008  10.304  12.068
   26        0.755   1.011  10.306  12.071
   27        0.756   1.019  10.311  12.087
   28        0.656   0.828  10.272  11.756
   29        0.661   0.826  10.272  11.758
   30        0.758   1.020  10.313  12.091
   31        0.756   1.010  10.306  12.072
   32        0.665   0.838  10.281  11.783
   33        0.657   0.832  10.275  11.764
   34        0.755   1.015  10.309  12.079
   35        0.656   0.832  10.275  11.764
   36        0.653   0.817  10.264  11.734
   37        0.756   1.019  10.311  12.087
   38        0.755   1.009  10.305  12.069
   39        0.755   1.012  10.306  12.072
   40        0.655   0.825  10.270  11.750
   41        0.657   0.834  10.276  11.768
   42        0.656   0.831  10.274  11.761
   43        0.756   1.017  10.310  12.083
   44        0.755   1.014  10.308  12.077
   45        0.655   0.826  10.271  11.752
   46        0.655   0.825  10.270  11.750
   47        0.655   0.821  10.267  11.742
   48        0.754   1.006  10.303  12.063
   49        0.755   1.009  10.304  12.068
   50        0.656   0.827  10.272  11.755
   51        0.656   0.828  10.272  11.756
   52        0.756   1.014  10.307  12.077
   53        0.754   1.011  10.306  12.070
   54        0.656   0.826  10.270  11.752
   55        0.654   0.821  10.267  11.743
   56        0.754   1.006  10.303  12.063
   57        0.754   1.006  10.302  12.062
   58        0.656   0.828  10.272  11.756
   59        0.656   0.827  10.271  11.754
   60        0.754   1.010  10.305  12.070
   61        0.754   1.011  10.306  12.071
   62        0.654   0.821  10.267  11.741
   63        0.655   0.823  10.268  11.747
   64        0.536   0.705   6.988   8.229
   65        1.584   3.572   0.000   5.156
   66        1.584   3.571   0.000   5.155
   67        1.577   3.611   0.000   5.189
   68        1.580   3.586   0.000   5.166
   69        1.578   3.615   0.000   5.194
   70        1.578   3.615   0.000   5.192
   71        1.578   3.615   0.000   5.193
   72        1.578   3.614   0.000   5.192
   73        1.580   3.582   0.000   5.162
   74        1.580   3.583   0.000   5.163
   75        1.584   3.574   0.000   5.159
   76        1.584   3.575   0.000   5.159
   77        1.578   3.614   0.000   5.192
   78        1.578   3.613   0.000   5.191
   79        1.580   3.585   0.000   5.165
   80        1.580   3.585   0.000   5.165
   81        1.584   3.573   0.000   5.156
   82        1.584   3.573   0.000   5.157
   83        1.578   3.613   0.000   5.191
   84        1.577   3.610   0.000   5.187
   85        1.580   3.586   0.000   5.166
   86        1.580   3.583   0.000   5.162
   87        1.584   3.574   0.000   5.158
   88        1.584   3.575   0.000   5.160
   89        1.578   3.614   0.000   5.191
   90        1.580   3.584   0.000   5.164
   91        1.580   3.583   0.000   5.163
   92        1.584   3.573   0.000   5.158
   93        1.583   3.569   0.000   5.153
   94        1.584   3.574   0.000   5.159
   95        1.584   3.575   0.000   5.159
   96        1.578   3.613   0.000   5.191
   97        1.578   3.612   0.000   5.190
   98        1.580   3.585   0.000   5.165
   99        1.580   3.585   0.000   5.165
  100        1.584   3.573   0.000   5.157
  101        1.581   3.565   0.000   5.146
  102        1.580   3.585   0.000   5.165
  103        1.578   3.614   0.000   5.191
  104        1.577   3.567   0.000   5.144
  105        1.580   3.582   0.000   5.162
  106        1.584   3.574   0.000   5.158
  107        1.584   3.575   0.000   5.160
  108        1.578   3.614   0.000   5.192
  109        1.578   3.617   0.000   5.195
  110        1.580   3.584   0.000   5.164
  111        1.580   3.586   0.000   5.166
  112        1.578   3.615   0.000   5.194
  113        1.580   3.582   0.000   5.162
  114        1.578   3.614   0.000   5.192
  115        1.578   3.615   0.000   5.193
  116        1.583   3.570   0.000   5.153
  117        1.578   3.613   0.000   5.191
  118        1.578   3.612   0.000   5.190
  119        1.579   3.582   0.000   5.162
  120        1.579   3.581   0.000   5.161
  121        1.584   3.572   0.000   5.155
  122        1.581   3.565   0.000   5.146
  123        1.571   3.610   0.000   5.181
  124        1.577   3.608   0.000   5.185
  125        1.577   3.567   0.000   5.144
  126        1.580   3.582   0.000   5.162
  127        1.581   3.560   0.000   5.141
  128        1.583   3.570   0.000   5.154
  129        1.578   3.614   0.000   5.192
  130        1.578   3.617   0.000   5.195
  131        1.579   3.580   0.000   5.159
  132        1.579   3.578   0.000   5.157
  133        1.584   3.572   0.000   5.155
  134        1.584   3.571   0.000   5.154
  135        1.580   3.585   0.000   5.165
  136        1.584   3.573   0.000   5.156
  137        1.579   3.581   0.000   5.160
  138        1.579   3.582   0.000   5.161
  139        1.578   3.615   0.000   5.192
  140        1.578   3.614   0.000   5.191
  141        1.583   3.570   0.000   5.154
  142        1.583   3.570   0.000   5.154
  143        1.580   3.583   0.000   5.163
  144        1.580   3.586   0.000   5.166
  145        1.577   3.612   0.000   5.189
  146        1.577   3.611   0.000   5.189
  147        1.584   3.573   0.000   5.157
  148        1.584   3.573   0.000   5.157
  149        1.579   3.582   0.000   5.161
  150        1.579   3.582   0.000   5.161
  151        1.578   3.613   0.000   5.191
  152        1.578   3.614   0.000   5.192
  153        1.583   3.570   0.000   5.153
  154        1.583   3.569   0.000   5.153
  155        1.580   3.583   0.000   5.163
  156        1.580   3.582   0.000   5.162
  157        1.577   3.612   0.000   5.189
  158        1.577   3.611   0.000   5.188
  159        1.584   3.572   0.000   5.156
  160        1.584   3.573   0.000   5.157
--------------------------------------------------
tot        196.749 403.267 655.2121255.228
 


 magnetization (x)
 
# of ion       s       p       d       tot
------------------------------------------
    1       -0.000  -0.000   0.000  -0.000
    2        0.000   0.000  -0.000   0.000
    3        0.000   0.000  -0.000   0.000
    4       -0.000   0.000  -0.000  -0.000
    5        0.000  -0.000  -0.000   0.000
    6       -0.000  -0.000  -0.000  -0.000
    7       -0.000  -0.000  -0.000  -0.000
    8        0.000   0.000  -0.000   0.000
    9       -0.000  -0.000   0.000   0.000
   10       -0.000  -0.000   0.000   0.000
   11        0.000   0.000   0.000   0.000
   12        0.000   0.000  -0.000  -0.000
   13        0.000   0.000  -0.000   0.000
   14       -0.000  -0.000  -0.000  -0.000
   15        0.000  -0.000  -0.000  -0.000
   16       -0.000   0.000  -0.000  -0.000
   17       -0.000  -0.000  -0.000  -0.000
   18       -0.000  -0.000  -0.000  -0.000
   19       -0.000  -0.000   0.000  -0.000
   20        0.000  -0.000  -0.000  -0.000
   21        0.000   0.000  -0.000   0.000
   22        0.000   0.000  -0.000   0.000
   23        0.000  -0.000  -0.000  -0.000
   24       -0.000  -0.000  -0.000  -0.000
   25        0.000   0.000  -0.000   0.000
   26       -0.000  -0.000  -0.000  -0.000
   27        0.000  -0.000   0.000   0.000
   28        0.000   0.000   0.000   0.000
   29        0.000   0.000  -0.000   0.000
   30        0.000   0.000   0.000   0.000
   31        0.000   0.000   0.000   0.000
   32        0.000   0.000  -0.000   0.000
   33       -0.000  -0.000  -0.000  -0.000
   34       -0.000   0.000  -0.000   0.000
   35        0.000   0.000  -0.000   0.000
   36        0.000   0.000  -0.000  -0.000
   37       -0.000  -0.000   0.000  -0.000
   38        0.000   0.000  -0.000   0.000
   39        0.000   0.000  -0.000   0.000
   40        0.000   0.000   0.000   0.000
   41        0.000  -0.000  -0.000  -0.000
   42        0.000   0.000  -0.000   0.000
   43        0.000   0.000  -0.000   0.000
   44        0.000  -0.000  -0.000  -0.000
   45       -0.000  -0.000  -0.000  -0.000
   46        0.000   0.000   0.000   0.000
   47        0.000  -0.000  -0.000  -0.000
   48        0.000   0.000   0.000   0.000
   49       -0.000  -0.000  -0.000  -0.000
   50        0.000  -0.000   0.000   0.000
   51        0.000   0.000  -0.000  -0.000
   52       -0.000   0.000  -0.000  -0.000
   53       -0.000   0.000   0.000   0.000
   54        0.000  -0.000   0.000   0.000
   55       -0.000  -0.000   0.000   0.000
   56       -0.000   0.000  -0.000  -0.000
   57        0.000  -0.000  -0.000   0.000
   58       -0.000  -0.000   0.000  -0.000
   59        0.000   0.000  -0.000   0.000
   60        0.000   0.000   0.000   0.000
   61       -0.000   0.000   0.000   0.000
   62        0.000   0.000  -0.000   0.000
   63       -0.000  -0.000   0.000  -0.000
   64        0.000  -0.000  -0.000  -0.000
   65       -0.000   0.000   0.000   0.000
   66       -0.000  -0.000   0.000  -0.000
   67       -0.000   0.000   0.000   0.000
   68       -0.000  -0.000   0.000  -0.000
   69       -0.000  -0.000   0.000  -0.000
   70       -0.000   0.000   0.000   0.000
   71       -0.000  -0.000   0.000  -0.000
   72       -0.000  -0.000   0.000  -0.000
   73        0.000   0.000   0.000   0.000
   74       -0.000  -0.000   0.000  -0.000
   75        0.000  -0.000   0.000  -0.000
   76        0.000   0.000   0.000   0.000
   77        0.000   0.000   0.000   0.000
   78        0.000   0.000   0.000   0.000
   79       -0.000  -0.000   0.000  -0.000
   80       -0.000  -0.000   0.000  -0.000
   81       -0.000  -0.000   0.000  -0.000
   82        0.000  -0.000   0.000  -0.000
   83       -0.000   0.000   0.000   0.000
   84       -0.000  -0.000   0.000  -0.000
   85       -0.000   0.000   0.000  -0.000
   86        0.000  -0.000   0.000  -0.000
   87        0.000  -0.000   0.000  -0.000
   88        0.000   0.000   0.000   0.000
   89        0.000  -0.000   0.000  -0.000
   90        0.000   0.000   0.000   0.000
   91        0.000   0.000   0.000   0.000
   92       -0.000  -0.000   0.000  -0.000
   93       -0.000   0.000   0.000   0.000
   94       -0.000   0.000   0.000   0.000
   95        0.000  -0.000   0.000  -0.000
   96        0.000   0.000   0.000   0.000
   97        0.000   0.000   0.000   0.000
   98       -0.000   0.000   0.000   0.000
   99        0.000   0.000   0.000   0.000
  100        0.000   0.000   0.000   0.000
  101       -0.000  -0.000   0.000  -0.000
  102        0.000  -0.000   0.000  -0.000
  103        0.000   0.000   0.000   0.000
  104       -0.000  -0.000   0.000  -0.000
  105       -0.000  -0.000   0.000  -0.000
  106       -0.000  -0.000   0.000  -0.000
  107        0.000  -0.000   0.000  -0.000
  108       -0.000  -0.000   0.000  -0.000
  109        0.000   0.000   0.000   0.000
  110        0.000  -0.000   0.000  -0.000
  111        0.000  -0.000   0.000  -0.000
  112       -0.000   0.000   0.000   0.000
  113       -0.000  -0.000   0.000  -0.000
  114        0.000   0.000   0.000   0.000
  115        0.000   0.000   0.000   0.000
  116        0.000   0.000   0.000   0.000
  117       -0.000   0.000   0.000   0.000
  118       -0.000  -0.000   0.000  -0.000
  119       -0.000  -0.000   0.000  -0.000
  120       -0.000  -0.000   0.000  -0.000
  121       -0.000  -0.000   0.000  -0.000
  122       -0.000   0.000   0.000   0.000
  123        0.000   0.000   0.000   0.000
  124       -0.000  -0.000   0.000  -0.000
  125        0.000   0.000   0.000   0.000
  126       -0.000   0.000   0.000   0.000
  127        0.000   0.000   0.000   0.000
  128        0.000  -0.000   0.000  -0.000
  129        0.000   0.000   0.000   0.000
  130       -0.000   0.000   0.000   0.000
  131        0.000  -0.000   0.000  -0.000
  132       -0.000  -0.000   0.000  -0.000
  133        0.000   0.000   0.000   0.000
  134       -0.000  -0.000   0.000  -0.000
  135       -0.000  -0.000   0.000  -0.000
  136       -0.000   0.000   0.000   0.000
  137       -0.000  -0.000   0.000  -0.000
  138       -0.000  -0.000   0.000  -0.000
  139        0.000   0.000   0.000   0.000
  140        0.000   0.000   0.000   0.000
  141        0.000  -0.000   0.000  -0.000
  142        0.000   0.000   0.000   0.000
  143       -0.000   0.000   0.000  -0.000
  144       -0.000  -0.000   0.000  -0.000
  145        0.000   0.000   0.000   0.000
  146       -0.000  -0.000   0.000  -0.000
  147       -0.000  -0.000   0.000  -0.000
  148        0.000   0.000   0.000   0.000
  149       -0.000  -0.000   0.000  -0.000
  150        0.000   0.000   0.000   0.000
  151       -0.000  -0.000   0.000  -0.000
  152       -0.000  -0.000   0.000  -0.000
  153        0.000   0.000   0.000   0.000
  154       -0.000  -0.000   0.000  -0.000
  155        0.000   0.000   0.000   0.000
  156       -0.000  -0.000   0.000  -0.000
  157        0.000   0.000   0.000   0.000
  158       -0.000  -0.000   0.000  -0.000
  159       -0.000   0.000   0.000   0.000
  160        0.000   0.000   0.000   0.000
--------------------------------------------------
tot          0.000  -0.000  -0.000  -0.000
 

 total amount of memory used by VASP MPI-rank0    73297. kBytes
=======================================================================

   base      :      30000. kBytes
   nonlr-proj:      26710. kBytes
   fftplans  :       1991. kBytes
   grid      :       3603. kBytes
   one-center:        622. kBytes
   HF        :        129. kBytes
   wavefun   :      10242. kBytes
 
  
  
 General timing and accounting informations for this job:
 ========================================================
  
                  Total CPU time used (sec):     3534.516
                            User time (sec):     3330.272
                          System time (sec):      204.245
                         Elapsed time (sec):     3540.506
  
                   Maximum memory used (kb):      363868.
                   Average memory used (kb):           0.
  
                          Minor page faults:      1723023
                          Major page faults:           36
                 Voluntary context switches:        39663
